
     Program PWSCF v.7.2 starts on 21Apr2026 at 18:24: 8 

     This program is part of the open-source Quantum ESPRESSO suite
     for quantum simulation of materials; please cite
         "P. Giannozzi et al., J. Phys.:Condens. Matter 21 395502 (2009);
         "P. Giannozzi et al., J. Phys.:Condens. Matter 29 465901 (2017);
         "P. Giannozzi et al., J. Chem. Phys. 152 154105 (2020);
          URL http://www.quantum-espresso.org", 
     in publications or presentations arising from this work. More details at
     http://www.quantum-espresso.org/quote

     Parallel version (MPI & OpenMP), running on       4 processor cores
     Number of MPI processes:                 4
     Threads/MPI process:                     1

     MPI processes distributed on     1 nodes
     57216 MiB available memory on the printing compute node when the environment starts
 
     Waiting for input...
     Reading input from standard input

     Current dimensions of program PWSCF are:
     Max number of different atomic species (ntypx) = 10
     Max number of k-points (npk) =  40000
     Max angular momentum in pseudopotentials (lmaxx) =  4
     Found identity + ( -0.5000 -0.5000  0.0000) symmetry
     This is a supercell, fractional translations are disabled
 
     R & G space division:  proc/nbgrp/npool/nimage =       4
     Subspace diagonalization in iterative solution of the eigenvalue problem:
     a serial algorithm will be used

 
     Parallelization info
     --------------------
     sticks:   dense  smooth     PW     G-vecs:    dense   smooth      PW
     Min         338     338    105                 9298     9298    1653
     Max         339     339    106                 9299     9299    1658
     Sum        1353    1353    421                37193    37193    6619
 
     Using Slab Decomposition
 


     bravais-lattice index     =            1
     lattice parameter (alat)  =      10.2800  a.u.
     unit-cell volume          =    1086.3740 (a.u.)^3
     number of atoms/cell      =            8
     number of atomic types    =            2
     number of electrons       =        64.00
     number of Kohn-Sham states=           32
     kinetic-energy cutoff     =      40.0000  Ry
     charge density cutoff     =     160.0000  Ry
     scf convergence threshold =      1.0E-08
     mixing beta               =       0.5000
     number of iterations used =            8  plain     mixing
     energy convergence thresh.=      1.0E-04
     force convergence thresh. =      1.0E-03
     Exchange-correlation= PBE
                           (   1   4   3   4   0   0   0)
     nstep                     =           50

 
     Using Berry phase electric field
     In a.u.(Ry)  cartesian system of reference
        0.0010000000
        0.0000000000
        0.0000000000
     In a.u.(Ry)  crystal system of reference
        0.0010000000
        0.0000000000
        0.0000000000
     Number of iterative cycles:   3
 

     celldm(1)=  10.280000  celldm(2)=   0.000000  celldm(3)=   0.000000
     celldm(4)=   0.000000  celldm(5)=   0.000000  celldm(6)=   0.000000

     crystal axes: (cart. coord. in units of alat)
               a(1) = (   1.000000   0.000000   0.000000 )  
               a(2) = (   0.000000   1.000000   0.000000 )  
               a(3) = (   0.000000   0.000000   1.000000 )  

     reciprocal axes: (cart. coord. in units 2 pi/alat)
               b(1) = (  1.000000  0.000000  0.000000 )  
               b(2) = (  0.000000  1.000000  0.000000 )  
               b(3) = (  0.000000  0.000000  1.000000 )  


     PseudoPot. # 1 for Al read from file:
     ../../pseudo/Al_ONCV_PBE-1.2.upf
     MD5 check sum: 2d9e7bc02555220d62fad08c3c4858e7
     Pseudo is Norm-conserving, Zval = 11.0
     Generated using ONCVPSP code by D. R. Hamann
     Using radial grid of  602 points,  4 beta functions with: 
                l(1) =   0
                l(2) =   0
                l(3) =   1
                l(4) =   1

     PseudoPot. # 2 for P  read from file:
     ../../pseudo/P_ONCV_PBE-1.2.upf
     MD5 check sum: 0688a67b2b263c6b42d3d97c42745426
     Pseudo is Norm-conserving, Zval =  5.0
     Generated using ONCVPSP code by D. R. Hamann
     Using radial grid of  602 points,  4 beta functions with: 
                l(1) =   0
                l(2) =   0
                l(3) =   1
                l(4) =   1

     atomic species   valence    mass     pseudopotential
        Al            11.00    26.98200     Al( 1.00)
        P              5.00    30.97400     P ( 1.00)

     No symmetry found



   Cartesian axes

     site n.     atom                  positions (alat units)
         1           Al  tau(   1) = (  -0.1250000  -0.1250000  -0.1250000  )
         2           Al  tau(   2) = (   0.3750000   0.3750000  -0.1250000  )
         3           Al  tau(   3) = (   0.3750000  -0.1250000   0.3750000  )
         4           Al  tau(   4) = (  -0.1250000   0.3750000   0.3750000  )
         5           P   tau(   5) = (   0.1250000   0.1250000   0.1250000  )
         6           P   tau(   6) = (   0.6250000   0.6250000   0.1250000  )
         7           P   tau(   7) = (   0.6250000   0.1250000   0.6250000  )
         8           P   tau(   8) = (   0.1250000   0.6250000   0.6250000  )

     number of k points=    64
                       cart. coord. in units 2pi/alat
        k(    1) = (   0.0000000   0.0000000   0.0000000), wk =   0.0312500
        k(    2) = (   0.0000000   0.0000000   0.2500000), wk =   0.0312500
        k(    3) = (   0.0000000   0.0000000   0.5000000), wk =   0.0312500
        k(    4) = (   0.0000000   0.0000000   0.7500000), wk =   0.0312500
        k(    5) = (   0.0000000   0.2500000   0.0000000), wk =   0.0312500
        k(    6) = (   0.0000000   0.2500000   0.2500000), wk =   0.0312500
        k(    7) = (   0.0000000   0.2500000   0.5000000), wk =   0.0312500
        k(    8) = (   0.0000000   0.2500000   0.7500000), wk =   0.0312500
        k(    9) = (   0.0000000   0.5000000   0.0000000), wk =   0.0312500
        k(   10) = (   0.0000000   0.5000000   0.2500000), wk =   0.0312500
        k(   11) = (   0.0000000   0.5000000   0.5000000), wk =   0.0312500
        k(   12) = (   0.0000000   0.5000000   0.7500000), wk =   0.0312500
        k(   13) = (   0.0000000   0.7500000   0.0000000), wk =   0.0312500
        k(   14) = (   0.0000000   0.7500000   0.2500000), wk =   0.0312500
        k(   15) = (   0.0000000   0.7500000   0.5000000), wk =   0.0312500
        k(   16) = (   0.0000000   0.7500000   0.7500000), wk =   0.0312500
        k(   17) = (   0.2500000   0.0000000   0.0000000), wk =   0.0312500
        k(   18) = (   0.2500000   0.0000000   0.2500000), wk =   0.0312500
        k(   19) = (   0.2500000   0.0000000   0.5000000), wk =   0.0312500
        k(   20) = (   0.2500000   0.0000000   0.7500000), wk =   0.0312500
        k(   21) = (   0.2500000   0.2500000   0.0000000), wk =   0.0312500
        k(   22) = (   0.2500000   0.2500000   0.2500000), wk =   0.0312500
        k(   23) = (   0.2500000   0.2500000   0.5000000), wk =   0.0312500
        k(   24) = (   0.2500000   0.2500000   0.7500000), wk =   0.0312500
        k(   25) = (   0.2500000   0.5000000   0.0000000), wk =   0.0312500
        k(   26) = (   0.2500000   0.5000000   0.2500000), wk =   0.0312500
        k(   27) = (   0.2500000   0.5000000   0.5000000), wk =   0.0312500
        k(   28) = (   0.2500000   0.5000000   0.7500000), wk =   0.0312500
        k(   29) = (   0.2500000   0.7500000   0.0000000), wk =   0.0312500
        k(   30) = (   0.2500000   0.7500000   0.2500000), wk =   0.0312500
        k(   31) = (   0.2500000   0.7500000   0.5000000), wk =   0.0312500
        k(   32) = (   0.2500000   0.7500000   0.7500000), wk =   0.0312500
        k(   33) = (   0.5000000   0.0000000   0.0000000), wk =   0.0312500
        k(   34) = (   0.5000000   0.0000000   0.2500000), wk =   0.0312500
        k(   35) = (   0.5000000   0.0000000   0.5000000), wk =   0.0312500
        k(   36) = (   0.5000000   0.0000000   0.7500000), wk =   0.0312500
        k(   37) = (   0.5000000   0.2500000   0.0000000), wk =   0.0312500
        k(   38) = (   0.5000000   0.2500000   0.2500000), wk =   0.0312500
        k(   39) = (   0.5000000   0.2500000   0.5000000), wk =   0.0312500
        k(   40) = (   0.5000000   0.2500000   0.7500000), wk =   0.0312500
        k(   41) = (   0.5000000   0.5000000   0.0000000), wk =   0.0312500
        k(   42) = (   0.5000000   0.5000000   0.2500000), wk =   0.0312500
        k(   43) = (   0.5000000   0.5000000   0.5000000), wk =   0.0312500
        k(   44) = (   0.5000000   0.5000000   0.7500000), wk =   0.0312500
        k(   45) = (   0.5000000   0.7500000   0.0000000), wk =   0.0312500
        k(   46) = (   0.5000000   0.7500000   0.2500000), wk =   0.0312500
        k(   47) = (   0.5000000   0.7500000   0.5000000), wk =   0.0312500
        k(   48) = (   0.5000000   0.7500000   0.7500000), wk =   0.0312500
        k(   49) = (   0.7500000   0.0000000   0.0000000), wk =   0.0312500
        k(   50) = (   0.7500000   0.0000000   0.2500000), wk =   0.0312500
        k(   51) = (   0.7500000   0.0000000   0.5000000), wk =   0.0312500
        k(   52) = (   0.7500000   0.0000000   0.7500000), wk =   0.0312500
        k(   53) = (   0.7500000   0.2500000   0.0000000), wk =   0.0312500
        k(   54) = (   0.7500000   0.2500000   0.2500000), wk =   0.0312500
        k(   55) = (   0.7500000   0.2500000   0.5000000), wk =   0.0312500
        k(   56) = (   0.7500000   0.2500000   0.7500000), wk =   0.0312500
        k(   57) = (   0.7500000   0.5000000   0.0000000), wk =   0.0312500
        k(   58) = (   0.7500000   0.5000000   0.2500000), wk =   0.0312500
        k(   59) = (   0.7500000   0.5000000   0.5000000), wk =   0.0312500
        k(   60) = (   0.7500000   0.5000000   0.7500000), wk =   0.0312500
        k(   61) = (   0.7500000   0.7500000   0.0000000), wk =   0.0312500
        k(   62) = (   0.7500000   0.7500000   0.2500000), wk =   0.0312500
        k(   63) = (   0.7500000   0.7500000   0.5000000), wk =   0.0312500
        k(   64) = (   0.7500000   0.7500000   0.7500000), wk =   0.0312500

     Dense  grid:    37193 G-vectors     FFT dimensions: (  45,  45,  45)

     Estimated max dynamical RAM per process >      46.83 MB

     Estimated total dynamical RAM >     187.33 MB

     Initial potential from superposition of free atoms

     starting charge      63.5843, renormalised to      64.0000
     Starting wfcs are random

     total cpu time spent up to now is        0.8 secs

     Self-consistent Calculation

     iteration #  1     ecut=    40.00 Ry     beta= 0.50
     Davidson diagonalization with overlap
     ethr =  1.00E-02,  avg # of iterations =  8.4
     Davidson diagonalization with overlap
     ethr =  1.00E-02,  avg # of iterations =  1.8
     Davidson diagonalization with overlap
     ethr =  1.00E-02,  avg # of iterations =  1.0

     Threshold (ethr) on eigenvalues was too large:
     Diagonalizing with lowered threshold

     Davidson diagonalization with overlap
     ethr =  7.07E-04,  avg # of iterations =  1.3
     Davidson diagonalization with overlap
     ethr =  7.07E-04,  avg # of iterations =  1.0
     Davidson diagonalization with overlap
     ethr =  7.07E-04,  avg # of iterations =  1.0
 
     Expectation value of exp(iGx): (0.221870816853895,2.185897174048113E-002)
   1.00000000000000     
     Electronic Dipole per cell (Ry a.u.)  0.454452517026919     
     Ionic Dipole per cell (Ry a.u.)   188.995500475540     
 
     Expectation value of exp(iGx): (0.222810480119901,-1.939824878252024E-004)
   1.00000000000000     
     Electronic Dipole per cell (Ry a.u.) -4.028886570945138E-003
     Ionic Dipole per cell (Ry a.u.)   188.995500475540     
 
     Expectation value of exp(iGx): (0.222861672188461,2.326456972071030E-004)
   1.00000000000000     
     Electronic Dipole per cell (Ry a.u.)  4.830785141961683E-003
     Ionic Dipole per cell (Ry a.u.)   188.995500475540     
Electronic Dipole on Cartesian axes
           1  0.454452517026919     
           2 -4.028886570945138E-003
           3  4.830785141961683E-003
Ionic Dipole on Cartesian axes
           1   188.995500475540     
           2   188.995500475540     
           3   188.995500475540     

     total cpu time spent up to now is       43.2 secs

     total energy              =    -606.68131741 Ry
     estimated scf accuracy    <       0.45005835 Ry

     iteration #  2     ecut=    40.00 Ry     beta= 0.50
     Davidson diagonalization with overlap
     ethr =  7.03E-04,  avg # of iterations =  2.0
     Davidson diagonalization with overlap
     ethr =  7.03E-04,  avg # of iterations =  1.0
     Davidson diagonalization with overlap
     ethr =  7.03E-04,  avg # of iterations =  1.0
 
     Expectation value of exp(iGx): (0.193801834298404,2.282686120253745E-002)
   1.00000000000000     
     Electronic Dipole per cell (Ry a.u.)  0.542563001916168     
     Ionic Dipole per cell (Ry a.u.)   188.995500475540     
 
     Expectation value of exp(iGx): (0.195179437295470,6.227567240708106E-006)
   1.00000000000000     
     Electronic Dipole per cell (Ry a.u.)  1.476531115622453E-004
     Ionic Dipole per cell (Ry a.u.)   188.995500475540     
 
     Expectation value of exp(iGx): (0.195191137649498,1.535096964301141E-004)
   1.00000000000000     
     Electronic Dipole per cell (Ry a.u.)  3.639434166060948E-003
     Ionic Dipole per cell (Ry a.u.)   188.995500475540     
Electronic Dipole on Cartesian axes
           1  0.542563001916168     
           2  1.476531115622453E-004
           3  3.639434166060948E-003
Ionic Dipole on Cartesian axes
           1   188.995500475540     
           2   188.995500475540     
           3   188.995500475540     

     total cpu time spent up to now is       60.2 secs

     total energy              =    -606.74907029 Ry
     estimated scf accuracy    <       0.03112859 Ry

     iteration #  3     ecut=    40.00 Ry     beta= 0.50
     Davidson diagonalization with overlap
     ethr =  4.86E-05,  avg # of iterations =  1.0
     Davidson diagonalization with overlap
     ethr =  4.86E-05,  avg # of iterations =  1.0
     Davidson diagonalization with overlap
     ethr =  4.86E-05,  avg # of iterations =  1.0
 
     Expectation value of exp(iGx): (0.192610878299004,2.323075534297215E-002)
   1.00000000000000     
     Electronic Dipole per cell (Ry a.u.)  0.555453954775075     
     Ionic Dipole per cell (Ry a.u.)   188.995500475540     
 
     Expectation value of exp(iGx): (0.194056699013522,1.048724751989130E-006)
   1.00000000000000     
     Electronic Dipole per cell (Ry a.u.)  2.500870009765244E-005
     Ionic Dipole per cell (Ry a.u.)   188.995500475540     
 
     Expectation value of exp(iGx): (0.194060172578997,4.754704929086718E-005)
   1.00000000000000     
     Electronic Dipole per cell (Ry a.u.)  1.133823327981842E-003
     Ionic Dipole per cell (Ry a.u.)   188.995500475540     
Electronic Dipole on Cartesian axes
           1  0.555453954775075     
           2  2.500870009765244E-005
           3  1.133823327981842E-003
Ionic Dipole on Cartesian axes
           1   188.995500475540     
           2   188.995500475540     
           3   188.995500475540     

     total cpu time spent up to now is       76.0 secs

     total energy              =    -606.74935888 Ry
     estimated scf accuracy    <       0.00625750 Ry

     iteration #  4     ecut=    40.00 Ry     beta= 0.50
     Davidson diagonalization with overlap
     ethr =  9.78E-06,  avg # of iterations =  1.0
     Davidson diagonalization with overlap
     ethr =  9.78E-06,  avg # of iterations =  1.0
     Davidson diagonalization with overlap
     ethr =  9.78E-06,  avg # of iterations =  1.0
 
     Expectation value of exp(iGx): (0.192869908983086,2.336144586711800E-002)
   1.00000000000000     
     Electronic Dipole per cell (Ry a.u.)  0.557805725604063     
     Ionic Dipole per cell (Ry a.u.)   188.995500475540     
 
     Expectation value of exp(iGx): (0.194333399922001,-8.517291153947075E-006)
   1.00000000000000     
     Electronic Dipole per cell (Ry a.u.) -2.028207031561616E-004
     Ionic Dipole per cell (Ry a.u.)   188.995500475540     
 
     Expectation value of exp(iGx): (0.194334161460457,1.425493112028635E-005)
   1.00000000000000     
     Electronic Dipole per cell (Ry a.u.)  3.394487481904609E-004
     Ionic Dipole per cell (Ry a.u.)   188.995500475540     
Electronic Dipole on Cartesian axes
           1  0.557805725604063     
           2 -2.028207031561616E-004
           3  3.394487481904609E-004
Ionic Dipole on Cartesian axes
           1   188.995500475540     
           2   188.995500475540     
           3   188.995500475540     

     total cpu time spent up to now is       91.8 secs

     total energy              =    -606.74951651 Ry
     estimated scf accuracy    <       0.00005898 Ry

     iteration #  5     ecut=    40.00 Ry     beta= 0.50
     Davidson diagonalization with overlap
     ethr =  9.21E-08,  avg # of iterations =  2.5
     Davidson diagonalization with overlap
     ethr =  9.21E-08,  avg # of iterations =  1.0
     Davidson diagonalization with overlap
     ethr =  9.21E-08,  avg # of iterations =  1.0
 
     Expectation value of exp(iGx): (0.192580384646497,2.347935195428777E-002)
   1.00000000000000     
     Electronic Dipole per cell (Ry a.u.)  0.561428151624845     
     Ionic Dipole per cell (Ry a.u.)   188.995500475540     
 
     Expectation value of exp(iGx): (0.194062492425218,9.798971222607211E-007)
   1.00000000000000     
     Electronic Dipole per cell (Ry a.u.)  2.336668570701062E-005
     Ionic Dipole per cell (Ry a.u.)   188.995500475540     
 
     Expectation value of exp(iGx): (0.194062444307466,3.338654737109229E-006)
   1.00000000000000     
     Electronic Dipole per cell (Ry a.u.)  7.961378137599194E-005
     Ionic Dipole per cell (Ry a.u.)   188.995500475540     
Electronic Dipole on Cartesian axes
           1  0.561428151624845     
           2  2.336668570701062E-005
           3  7.961378137599194E-005
Ionic Dipole on Cartesian axes
           1   188.995500475540     
           2   188.995500475540     
           3   188.995500475540     

     total cpu time spent up to now is      108.8 secs

     total energy              =    -606.74952570 Ry
     estimated scf accuracy    <       0.00001202 Ry

     iteration #  6     ecut=    40.00 Ry     beta= 0.50
     Davidson diagonalization with overlap
     ethr =  1.88E-08,  avg # of iterations =  2.0
     Davidson diagonalization with overlap
     ethr =  1.88E-08,  avg # of iterations =  1.0
     Davidson diagonalization with overlap
     ethr =  1.88E-08,  avg # of iterations =  1.0
 
     Expectation value of exp(iGx): (0.192710065032035,2.348794160917572E-002)
   1.00000000000000     
     Electronic Dipole per cell (Ry a.u.)  0.561257291072305     
     Ionic Dipole per cell (Ry a.u.)   188.995500475540     
 
     Expectation value of exp(iGx): (0.194192246290545,2.548611581880411E-007)
   1.00000000000000     
     Electronic Dipole per cell (Ry a.u.)  6.073373732234545E-006
     Ionic Dipole per cell (Ry a.u.)   188.995500475540     
 
     Expectation value of exp(iGx): (0.194192305810353,4.330268778501931E-007)
   1.00000000000000     
     Electronic Dipole per cell (Ry a.u.)  1.031908227173961E-005
     Ionic Dipole per cell (Ry a.u.)   188.995500475540     
Electronic Dipole on Cartesian axes
           1  0.561257291072305     
           2  6.073373732234545E-006
           3  1.031908227173961E-005
Ionic Dipole on Cartesian axes
           1   188.995500475540     
           2   188.995500475540     
           3   188.995500475540     

     total cpu time spent up to now is      125.7 secs

     total energy              =    -606.74952725 Ry
     estimated scf accuracy    <       0.00000026 Ry

     iteration #  7     ecut=    40.00 Ry     beta= 0.50
     Davidson diagonalization with overlap
     ethr =  4.01E-10,  avg # of iterations =  4.0
     Davidson diagonalization with overlap
     ethr =  4.01E-10,  avg # of iterations =  1.0
     Davidson diagonalization with overlap
     ethr =  4.01E-10,  avg # of iterations =  1.0
 
     Expectation value of exp(iGx): (0.192778132949731,2.348042411745732E-002)
   1.00000000000000     
     Electronic Dipole per cell (Ry a.u.)  0.560883235700348     
     Ionic Dipole per cell (Ry a.u.)   188.995500475540     
 
     Expectation value of exp(iGx): (0.194258982489627,-1.118624379864040E-006)
   1.00000000000000     
     Electronic Dipole per cell (Ry a.u.) -2.664780308808697E-005
     Ionic Dipole per cell (Ry a.u.)   188.995500475540     
 
     Expectation value of exp(iGx): (0.194258982787033,-5.106488172132873E-007)
   1.00000000000000     
     Electronic Dipole per cell (Ry a.u.) -1.216464557048599E-005
     Ionic Dipole per cell (Ry a.u.)   188.995500475540     
Electronic Dipole on Cartesian axes
           1  0.560883235700348     
           2 -2.664780308808697E-005
           3 -1.216464557048599E-005
Ionic Dipole on Cartesian axes
           1   188.995500475540     
           2   188.995500475540     
           3   188.995500475540     

     total cpu time spent up to now is      144.2 secs

     total energy              =    -606.74952728 Ry
     estimated scf accuracy    <       0.00000054 Ry

     iteration #  8     ecut=    40.00 Ry     beta= 0.50
     Davidson diagonalization with overlap
     ethr =  4.01E-10,  avg # of iterations =  2.0
     Davidson diagonalization with overlap
     ethr =  4.01E-10,  avg # of iterations =  1.0
     Davidson diagonalization with overlap
     ethr =  4.01E-10,  avg # of iterations =  1.0
 
     Expectation value of exp(iGx): (0.192756398411148,2.348153191659464E-002)
   1.00000000000000     
     Electronic Dipole per cell (Ry a.u.)  0.560972068028209     
     Ionic Dipole per cell (Ry a.u.)   188.995500475540     
 
     Expectation value of exp(iGx): (0.194237539044831,-8.204790892260908E-007)
   1.00000000000000     
     Electronic Dipole per cell (Ry a.u.) -1.954756157682769E-005
     Ionic Dipole per cell (Ry a.u.)   188.995500475540     
 
     Expectation value of exp(iGx): (0.194237538670767,-5.292054829041104E-007)
   1.00000000000000     
     Electronic Dipole per cell (Ry a.u.) -1.260809314906374E-005
     Ionic Dipole per cell (Ry a.u.)   188.995500475540     
Electronic Dipole on Cartesian axes
           1  0.560972068028209     
           2 -1.954756157682769E-005
           3 -1.260809314906374E-005
Ionic Dipole on Cartesian axes
           1   188.995500475540     
           2   188.995500475540     
           3   188.995500475540     

     total cpu time spent up to now is      161.1 secs

     total energy              =    -606.74952735 Ry
     estimated scf accuracy    <       0.00000003 Ry

     iteration #  9     ecut=    40.00 Ry     beta= 0.50
     Davidson diagonalization with overlap
     ethr =  3.96E-11,  avg # of iterations =  2.0
     Davidson diagonalization with overlap
     ethr =  3.96E-11,  avg # of iterations =  1.0
     Davidson diagonalization with overlap
     ethr =  3.96E-11,  avg # of iterations =  1.0
 
     Expectation value of exp(iGx): (0.192749679503376,2.348363077830036E-002)
   1.00000000000000     
     Electronic Dipole per cell (Ry a.u.)  0.561041084984067     
     Ionic Dipole per cell (Ry a.u.)   188.995500475540     
 
     Expectation value of exp(iGx): (0.194231128358934,-5.594934144701087E-007)
   1.00000000000000     
     Electronic Dipole per cell (Ry a.u.) -1.333013002599721E-005
     Ionic Dipole per cell (Ry a.u.)   188.995500475540     
 
     Expectation value of exp(iGx): (0.194231126581861,-5.484937407266438E-007)
   1.00000000000000     
     Electronic Dipole per cell (Ry a.u.) -1.306805899788124E-005
     Ionic Dipole per cell (Ry a.u.)   188.995500475540     
Electronic Dipole on Cartesian axes
           1  0.561041084984067     
           2 -1.333013002599721E-005
           3 -1.306805899788124E-005
Ionic Dipole on Cartesian axes
           1   188.995500475540     
           2   188.995500475540     
           3   188.995500475540     

     total cpu time spent up to now is      178.0 secs

     End of self-consistent calculation

          k = 0.0000 0.0000 0.0000 (  4697 PWs)   bands (ev):

   -96.0913 -96.0450 -96.0448 -96.0448 -57.6538 -57.6518 -57.6516 -57.6515
   -57.6500 -57.6481 -57.6479 -57.6477 -57.6462 -57.6441 -57.6440 -57.6439
    -5.1963  -2.8131  -2.8131  -2.8131   1.0326   1.0326   1.0327   4.2571
     4.2587   4.2587   4.2589   4.2589   4.2592   6.3867   6.3887   6.3896

          k = 0.0000 0.0000 0.2500 (  4661 PWs)   bands (ev):

   -96.0577 -96.0425 -96.0424 -96.0415 -57.6516 -57.6514 -57.6514 -57.6513
   -57.6484 -57.6477 -57.6476 -57.6464 -57.6439 -57.6437 -57.6437 -57.6435
    -4.9620  -3.3762  -2.7879  -2.7879   1.2012   1.2012   1.8428   3.7034
     3.7037   3.8507   3.8509   4.4762   4.4764   5.2763   5.9108   5.9108

          k = 0.0000 0.0000 0.5000 (  4636 PWs)   bands (ev):

   -96.0533 -96.0531 -96.0237 -96.0236 -57.6515 -57.6514 -57.6497 -57.6496
   -57.6483 -57.6482 -57.6464 -57.6463 -57.6438 -57.6437 -57.6420 -57.6419
    -4.2990  -4.2990  -2.7616  -2.7616   1.4320   1.4320   3.1741   3.1741
     3.4850   3.4850   3.5355   3.5355   5.0831   5.0831   5.0834   5.0835

          k = 0.0000 0.0000 0.7500 (  4661 PWs)   bands (ev):

   -96.0577 -96.0425 -96.0424 -96.0415 -57.6516 -57.6514 -57.6514 -57.6513
   -57.6484 -57.6477 -57.6476 -57.6464 -57.6439 -57.6437 -57.6437 -57.6435
    -4.9620  -3.3762  -2.7879  -2.7879   1.2012   1.2012   1.8428   3.7034
     3.7037   3.8507   3.8509   4.4762   4.4764   5.2763   5.9108   5.9108

          k = 0.0000 0.2500 0.0000 (  4661 PWs)   bands (ev):

   -96.0577 -96.0425 -96.0424 -96.0415 -57.6516 -57.6514 -57.6514 -57.6513
   -57.6484 -57.6477 -57.6476 -57.6464 -57.6439 -57.6437 -57.6437 -57.6435
    -4.9620  -3.3762  -2.7879  -2.7879   1.2012   1.2012   1.8428   3.7034
     3.7037   3.8507   3.8509   4.4762   4.4764   5.2763   5.9108   5.9108

          k = 0.0000 0.2500 0.2500 (  4645 PWs)   bands (ev):

   -96.0532 -96.0531 -96.0357 -96.0245 -57.6524 -57.6524 -57.6501 -57.6487
   -57.6481 -57.6479 -57.6470 -57.6468 -57.6443 -57.6442 -57.6428 -57.6418
    -4.7382  -3.2693  -3.2693  -2.8442   1.3239   1.7470   1.7470   2.9226
     3.8514   3.8515   4.1923   4.3725   4.3725   4.6352   5.3675   6.2438

          k = 0.0000 0.2500 0.5000 (  4654 PWs)   bands (ev):

   -96.0446 -96.0445 -96.0438 -96.0437 -57.6519 -57.6514 -57.6510 -57.6507
   -57.6476 -57.6475 -57.6473 -57.6473 -57.6443 -57.6438 -57.6434 -57.6431
    -4.1115  -4.1111  -3.0321  -3.0313   1.5306   1.5338   2.8652   2.8689
     3.0042   3.0046   4.4682   4.4686   4.5306   4.5333   5.4639   5.4669

          k = 0.0000 0.2500 0.7500 (  4645 PWs)   bands (ev):

   -96.0532 -96.0531 -96.0357 -96.0245 -57.6519 -57.6519 -57.6504 -57.6494
   -57.6481 -57.6479 -57.6470 -57.6468 -57.6448 -57.6447 -57.6425 -57.6411
    -4.7380  -3.2698  -3.2698  -2.8436   1.3225   1.7497   1.7497   2.9206
     3.8512   3.8512   4.1887   4.3703   4.3703   4.6375   5.3679   6.2468

          k = 0.0000 0.5000 0.0000 (  4636 PWs)   bands (ev):

   -96.0533 -96.0531 -96.0237 -96.0236 -57.6515 -57.6514 -57.6497 -57.6496
   -57.6483 -57.6482 -57.6464 -57.6463 -57.6438 -57.6437 -57.6420 -57.6419
    -4.2990  -4.2990  -2.7616  -2.7616   1.4320   1.4320   3.1741   3.1741
     3.4850   3.4850   3.5355   3.5355   5.0831   5.0831   5.0835   5.0835

          k = 0.0000 0.5000 0.2500 (  4654 PWs)   bands (ev):

   -96.0446 -96.0445 -96.0438 -96.0437 -57.6519 -57.6514 -57.6510 -57.6507
   -57.6476 -57.6475 -57.6473 -57.6473 -57.6443 -57.6438 -57.6434 -57.6431
    -4.1115  -4.1111  -3.0321  -3.0313   1.5306   1.5338   2.8652   2.8689
     3.0042   3.0046   4.4682   4.4686   4.5306   4.5333   5.4639   5.4669

          k = 0.0000 0.5000 0.5000 (  4636 PWs)   bands (ev):

   -96.0398 -96.0396 -96.0396 -96.0396 -57.6515 -57.6514 -57.6506 -57.6506
   -57.6472 -57.6470 -57.6469 -57.6469 -57.6439 -57.6438 -57.6430 -57.6430
    -3.6128  -3.6128  -3.6120  -3.6120   2.0094   2.0094   2.0135   2.0135
     3.5234   3.5234   3.5237   3.5237   5.5371   5.5371   5.5399   5.5399

          k = 0.0000 0.5000 0.7500 (  4654 PWs)   bands (ev):

   -96.0446 -96.0445 -96.0438 -96.0437 -57.6519 -57.6514 -57.6510 -57.6507
   -57.6476 -57.6475 -57.6473 -57.6473 -57.6443 -57.6438 -57.6434 -57.6431
    -4.1115  -4.1111  -3.0321  -3.0313   1.5306   1.5338   2.8652   2.8689
     3.0042   3.0046   4.4682   4.4686   4.5306   4.5333   5.4639   5.4669

          k = 0.0000 0.7500 0.0000 (  4661 PWs)   bands (ev):

   -96.0577 -96.0425 -96.0424 -96.0415 -57.6516 -57.6514 -57.6514 -57.6513
   -57.6484 -57.6477 -57.6476 -57.6464 -57.6439 -57.6437 -57.6437 -57.6435
    -4.9620  -3.3762  -2.7879  -2.7879   1.2012   1.2012   1.8428   3.7034
     3.7037   3.8507   3.8509   4.4762   4.4764   5.2763   5.9108   5.9108

          k = 0.0000 0.7500 0.2500 (  4645 PWs)   bands (ev):

   -96.0532 -96.0531 -96.0357 -96.0245 -57.6519 -57.6519 -57.6504 -57.6494
   -57.6481 -57.6479 -57.6470 -57.6468 -57.6448 -57.6447 -57.6425 -57.6411
    -4.7380  -3.2698  -3.2698  -2.8436   1.3225   1.7497   1.7497   2.9206
     3.8512   3.8512   4.1887   4.3703   4.3703   4.6375   5.3679   6.2468

          k = 0.0000 0.7500 0.5000 (  4654 PWs)   bands (ev):

   -96.0446 -96.0445 -96.0438 -96.0437 -57.6519 -57.6514 -57.6510 -57.6507
   -57.6476 -57.6475 -57.6473 -57.6473 -57.6443 -57.6438 -57.6434 -57.6431
    -4.1115  -4.1111  -3.0321  -3.0313   1.5306   1.5338   2.8652   2.8689
     3.0042   3.0046   4.4682   4.4686   4.5306   4.5333   5.4639   5.4669

          k = 0.0000 0.7500 0.7500 (  4645 PWs)   bands (ev):

   -96.0532 -96.0531 -96.0357 -96.0245 -57.6524 -57.6524 -57.6501 -57.6487
   -57.6481 -57.6479 -57.6470 -57.6468 -57.6443 -57.6442 -57.6428 -57.6418
    -4.7382  -3.2693  -3.2693  -2.8442   1.3239   1.7470   1.7470   2.9226
     3.8514   3.8515   4.1923   4.3725   4.3725   4.6352   5.3675   6.2438

          k = 0.2500 0.0000 0.0000 (  4661 PWs)   bands (ev):

   -96.0577 -96.0425 -96.0424 -96.0415 -57.6521 -57.6514 -57.6514 -57.6501
   -57.6487 -57.6477 -57.6476 -57.6470 -57.6445 -57.6438 -57.6437 -57.6425
    -4.9620  -3.3762  -2.7879  -2.7879   1.2012   1.2012   1.8429   3.7036
     3.7036   3.8510   3.8510   4.4746   4.4768   5.2764   5.9092   5.9118

          k = 0.2500 0.0000 0.2500 (  4645 PWs)   bands (ev):

   -96.0532 -96.0531 -96.0357 -96.0245 -57.6521 -57.6519 -57.6503 -57.6502
   -57.6485 -57.6483 -57.6460 -57.6459 -57.6444 -57.6442 -57.6425 -57.6424
    -4.7381  -3.2696  -3.2696  -2.8439   1.3231   1.7483   1.7484   2.9216
     3.8511   3.8513   4.1904   4.3712   4.3714   4.6370   5.3676   6.2456

          k = 0.2500 0.0000 0.5000 (  4654 PWs)   bands (ev):

   -96.0446 -96.0445 -96.0438 -96.0437 -57.6516 -57.6515 -57.6510 -57.6509
   -57.6479 -57.6478 -57.6472 -57.6471 -57.6440 -57.6438 -57.6434 -57.6433
    -4.1113  -4.1113  -3.0317  -3.0317   1.5322   1.5322   2.8670   2.8671
     3.0043   3.0043   4.4685   4.4685   4.5322   4.5322   5.4654   5.4654

          k = 0.2500 0.0000 0.7500 (  4645 PWs)   bands (ev):

   -96.0532 -96.0531 -96.0357 -96.0245 -57.6521 -57.6519 -57.6503 -57.6502
   -57.6485 -57.6483 -57.6460 -57.6459 -57.6444 -57.6442 -57.6425 -57.6424
    -4.7381  -3.2696  -3.2696  -2.8439   1.3231   1.7483   1.7484   2.9216
     3.8511   3.8513   4.1904   4.3712   4.3714   4.6370   5.3676   6.2456

          k = 0.2500 0.2500 0.0000 (  4645 PWs)   bands (ev):

   -96.0532 -96.0531 -96.0357 -96.0245 -57.6521 -57.6519 -57.6503 -57.6502
   -57.6485 -57.6483 -57.6460 -57.6459 -57.6444 -57.6442 -57.6425 -57.6424
    -4.7381  -3.2696  -3.2696  -2.8439   1.3231   1.7483   1.7484   2.9216
     3.8511   3.8513   4.1904   4.3712   4.3714   4.6370   5.3676   6.2456

          k = 0.2500 0.2500 0.2500 (  4632 PWs)   bands (ev):

   -96.0419 -96.0365 -96.0364 -96.0364 -57.6514 -57.6509 -57.6508 -57.6502
   -57.6475 -57.6471 -57.6468 -57.6466 -57.6433 -57.6432 -57.6431 -57.6421
    -4.5281  -3.2208  -3.2203  -3.2203   1.4434   1.4434   1.4456   3.1893
     3.6953   3.6955   3.6955   4.8207   4.8224   4.8224   5.9403   5.9430

          k = 0.2500 0.2500 0.5000 (  4630 PWs)   bands (ev):

   -96.0468 -96.0467 -96.0287 -96.0285 -57.6521 -57.6517 -57.6499 -57.6496
   -57.6478 -57.6477 -57.6461 -57.6461 -57.6442 -57.6440 -57.6423 -57.6420
    -3.9504  -3.9499  -3.1700  -3.1693   1.1668   1.1694   2.0723   2.0749
     3.7641   3.7643   4.8835   4.8854   5.1634   5.1657   5.3284   5.3286

          k = 0.2500 0.2500 0.7500 (  4632 PWs)   bands (ev):

   -96.0419 -96.0365 -96.0364 -96.0364 -57.6510 -57.6508 -57.6507 -57.6502
   -57.6475 -57.6468 -57.6466 -57.6466 -57.6437 -57.6432 -57.6431 -57.6425
    -4.5279  -3.2208  -3.2208  -3.2203   1.4441   1.4461   1.4462   3.1871
     3.6931   3.6931   3.6934   4.8225   4.8225   4.8231   5.9417   5.9432

          k = 0.2500 0.5000 0.0000 (  4654 PWs)   bands (ev):

   -96.0446 -96.0445 -96.0438 -96.0437 -57.6516 -57.6515 -57.6510 -57.6509
   -57.6479 -57.6478 -57.6472 -57.6471 -57.6440 -57.6438 -57.6434 -57.6433
    -4.1113  -4.1113  -3.0317  -3.0317   1.5322   1.5322   2.8670   2.8671
     3.0043   3.0043   4.4685   4.4685   4.5322   4.5322   5.4654   5.4654

          k = 0.2500 0.5000 0.2500 (  4630 PWs)   bands (ev):

   -96.0468 -96.0467 -96.0287 -96.0285 -57.6521 -57.6517 -57.6499 -57.6496
   -57.6478 -57.6477 -57.6461 -57.6461 -57.6442 -57.6440 -57.6423 -57.6420
    -3.9504  -3.9499  -3.1700  -3.1693   1.1668   1.1694   2.0723   2.0749
     3.7641   3.7643   4.8835   4.8854   5.1634   5.1657   5.3284   5.3286

          k = 0.2500 0.5000 0.5000 (  4640 PWs)   bands (ev):

   -96.0414 -96.0411 -96.0411 -96.0411 -57.6518 -57.6517 -57.6513 -57.6513
   -57.6468 -57.6466 -57.6466 -57.6465 -57.6441 -57.6440 -57.6437 -57.6437
    -3.5530  -3.5530  -3.5521  -3.5521   1.2597   1.2597   1.2627   1.2627
     4.6361   4.6362   4.6372   4.6372   5.5753   5.5753   5.5781   5.5781

          k = 0.2500 0.5000 0.7500 (  4630 PWs)   bands (ev):

   -96.0468 -96.0467 -96.0287 -96.0285 -57.6521 -57.6517 -57.6499 -57.6496
   -57.6478 -57.6477 -57.6461 -57.6461 -57.6442 -57.6440 -57.6423 -57.6420
    -3.9504  -3.9499  -3.1700  -3.1693   1.1668   1.1694   2.0723   2.0749
     3.7641   3.7643   4.8835   4.8854   5.1634   5.1657   5.3284   5.3286

          k = 0.2500 0.7500 0.0000 (  4645 PWs)   bands (ev):

   -96.0532 -96.0531 -96.0357 -96.0245 -57.6521 -57.6519 -57.6503 -57.6502
   -57.6485 -57.6483 -57.6460 -57.6459 -57.6444 -57.6442 -57.6425 -57.6424
    -4.7381  -3.2696  -3.2696  -2.8439   1.3231   1.7483   1.7484   2.9216
     3.8511   3.8513   4.1904   4.3712   4.3714   4.6370   5.3676   6.2456

          k = 0.2500 0.7500 0.2500 (  4632 PWs)   bands (ev):

   -96.0419 -96.0365 -96.0364 -96.0364 -57.6510 -57.6508 -57.6507 -57.6502
   -57.6475 -57.6468 -57.6466 -57.6466 -57.6437 -57.6432 -57.6431 -57.6425
    -4.5279  -3.2208  -3.2208  -3.2203   1.4441   1.4461   1.4462   3.1871
     3.6931   3.6931   3.6934   4.8225   4.8225   4.8231   5.9417   5.9432

          k = 0.2500 0.7500 0.5000 (  4630 PWs)   bands (ev):

   -96.0468 -96.0467 -96.0287 -96.0285 -57.6521 -57.6517 -57.6499 -57.6496
   -57.6478 -57.6477 -57.6461 -57.6461 -57.6442 -57.6440 -57.6423 -57.6420
    -3.9504  -3.9499  -3.1700  -3.1693   1.1668   1.1694   2.0723   2.0749
     3.7641   3.7643   4.8835   4.8854   5.1634   5.1657   5.3284   5.3286

          k = 0.2500 0.7500 0.7500 (  4632 PWs)   bands (ev):

   -96.0419 -96.0365 -96.0364 -96.0364 -57.6514 -57.6509 -57.6508 -57.6502
   -57.6475 -57.6471 -57.6468 -57.6466 -57.6433 -57.6432 -57.6431 -57.6421
    -4.5281  -3.2208  -3.2203  -3.2203   1.4434   1.4434   1.4456   3.1893
     3.6953   3.6955   3.6955   4.8207   4.8224   4.8224   5.9403   5.9430

          k = 0.5000 0.0000 0.0000 (  4636 PWs)   bands (ev):

   -96.0533 -96.0531 -96.0237 -96.0236 -57.6520 -57.6519 -57.6501 -57.6500
   -57.6471 -57.6470 -57.6455 -57.6453 -57.6444 -57.6443 -57.6425 -57.6424
    -4.2990  -4.2990  -2.7616  -2.7616   1.4319   1.4320   3.1741   3.1741
     3.4851   3.4851   3.5355   3.5355   5.0817   5.0817   5.0840   5.0840

          k = 0.5000 0.0000 0.2500 (  4654 PWs)   bands (ev):

   -96.0446 -96.0445 -96.0438 -96.0437 -57.6515 -57.6514 -57.6510 -57.6510
   -57.6481 -57.6480 -57.6471 -57.6470 -57.6438 -57.6437 -57.6434 -57.6433
    -4.1113  -4.1113  -3.0317  -3.0317   1.5322   1.5322   2.8671   2.8671
     3.0043   3.0043   4.4683   4.4683   4.5322   4.5322   5.4653   5.4653

          k = 0.5000 0.0000 0.5000 (  4636 PWs)   bands (ev):

   -96.0398 -96.0396 -96.0396 -96.0396 -57.6511 -57.6509 -57.6509 -57.6508
   -57.6474 -57.6473 -57.6472 -57.6472 -57.6434 -57.6432 -57.6432 -57.6432
    -3.6124  -3.6124  -3.6124  -3.6123   2.0114   2.0114   2.0114   2.0115
     3.5235   3.5235   3.5235   3.5235   5.5390   5.5390   5.5390   5.5390

          k = 0.5000 0.0000 0.7500 (  4654 PWs)   bands (ev):

   -96.0446 -96.0445 -96.0438 -96.0437 -57.6515 -57.6514 -57.6510 -57.6510
   -57.6481 -57.6480 -57.6471 -57.6470 -57.6438 -57.6437 -57.6434 -57.6433
    -4.1113  -4.1113  -3.0317  -3.0317   1.5322   1.5322   2.8671   2.8671
     3.0043   3.0043   4.4683   4.4683   4.5322   4.5322   5.4653   5.4653

          k = 0.5000 0.2500 0.0000 (  4654 PWs)   bands (ev):

   -96.0446 -96.0445 -96.0438 -96.0437 -57.6515 -57.6514 -57.6510 -57.6510
   -57.6481 -57.6480 -57.6471 -57.6470 -57.6438 -57.6437 -57.6434 -57.6433
    -4.1113  -4.1113  -3.0317  -3.0317   1.5322   1.5322   2.8671   2.8671
     3.0043   3.0043   4.4683   4.4683   4.5322   4.5322   5.4653   5.4653

          k = 0.5000 0.2500 0.2500 (  4630 PWs)   bands (ev):

   -96.0468 -96.0467 -96.0287 -96.0286 -57.6523 -57.6523 -57.6499 -57.6498
   -57.6485 -57.6483 -57.6460 -57.6459 -57.6431 -57.6430 -57.6422 -57.6422
    -3.9503  -3.9503  -3.1694  -3.1694   1.1668   1.1668   2.0744   2.0745
     3.7659   3.7659   4.8839   4.8839   5.1657   5.1657   5.3267   5.3267

          k = 0.5000 0.2500 0.5000 (  4640 PWs)   bands (ev):

   -96.0414 -96.0411 -96.0411 -96.0411 -57.6514 -57.6513 -57.6506 -57.6506
   -57.6479 -57.6478 -57.6477 -57.6477 -57.6436 -57.6435 -57.6429 -57.6429
    -3.5529  -3.5529  -3.5522  -3.5522   1.2600   1.2600   1.2624   1.2624
     4.6356   4.6356   4.6373   4.6373   5.5771   5.5771   5.5774   5.5774

          k = 0.5000 0.2500 0.7500 (  4630 PWs)   bands (ev):

   -96.0468 -96.0467 -96.0287 -96.0286 -57.6507 -57.6506 -57.6499 -57.6498
   -57.6485 -57.6483 -57.6460 -57.6458 -57.6447 -57.6446 -57.6423 -57.6422
    -3.9500  -3.9500  -3.1700  -3.1700   1.1694   1.1694   2.0728   2.0728
     3.7625   3.7625   4.8854   4.8854   5.1639   5.1639   5.3293   5.3293

          k = 0.5000 0.5000 0.0000 (  4636 PWs)   bands (ev):

   -96.0398 -96.0396 -96.0396 -96.0396 -57.6511 -57.6509 -57.6509 -57.6508
   -57.6474 -57.6473 -57.6472 -57.6472 -57.6434 -57.6432 -57.6432 -57.6432
    -3.6124  -3.6124  -3.6123  -3.6123   2.0114   2.0114   2.0114   2.0115
     3.5235   3.5235   3.5235   3.5235   5.5390   5.5390   5.5390   5.5390

          k = 0.5000 0.5000 0.2500 (  4640 PWs)   bands (ev):

   -96.0414 -96.0411 -96.0411 -96.0411 -57.6514 -57.6513 -57.6506 -57.6506
   -57.6479 -57.6478 -57.6477 -57.6477 -57.6436 -57.6435 -57.6429 -57.6429
    -3.5529  -3.5529  -3.5522  -3.5522   1.2600   1.2600   1.2624   1.2624
     4.6356   4.6356   4.6373   4.6373   5.5771   5.5771   5.5774   5.5774

          k = 0.5000 0.5000 0.5000 (  4680 PWs)   bands (ev):

   -96.0542 -96.0540 -96.0540 -96.0540 -57.6530 -57.6529 -57.6519 -57.6518
   -57.6488 -57.6487 -57.6485 -57.6484 -57.6451 -57.6450 -57.6442 -57.6442
    -3.4890  -3.4890  -3.4880  -3.4880   0.8000   0.8000   0.8027   0.8027
     5.6155   5.6155   5.6170   5.6170   5.6184   5.6184   5.6185   5.6186

          k = 0.5000 0.5000 0.7500 (  4640 PWs)   bands (ev):

   -96.0414 -96.0411 -96.0411 -96.0411 -57.6514 -57.6513 -57.6506 -57.6506
   -57.6479 -57.6478 -57.6477 -57.6477 -57.6436 -57.6435 -57.6429 -57.6429
    -3.5529  -3.5529  -3.5522  -3.5522   1.2600   1.2600   1.2624   1.2624
     4.6356   4.6356   4.6373   4.6373   5.5771   5.5771   5.5774   5.5774

          k = 0.5000 0.7500 0.0000 (  4654 PWs)   bands (ev):

   -96.0446 -96.0445 -96.0438 -96.0437 -57.6515 -57.6514 -57.6510 -57.6510
   -57.6481 -57.6480 -57.6471 -57.6470 -57.6438 -57.6437 -57.6434 -57.6433
    -4.1113  -4.1113  -3.0317  -3.0317   1.5322   1.5322   2.8671   2.8671
     3.0043   3.0043   4.4683   4.4683   4.5322   4.5322   5.4653   5.4653

          k = 0.5000 0.7500 0.2500 (  4630 PWs)   bands (ev):

   -96.0468 -96.0467 -96.0287 -96.0286 -57.6507 -57.6506 -57.6499 -57.6498
   -57.6485 -57.6483 -57.6460 -57.6458 -57.6447 -57.6446 -57.6423 -57.6422
    -3.9500  -3.9500  -3.1700  -3.1700   1.1694   1.1694   2.0728   2.0728
     3.7625   3.7625   4.8854   4.8854   5.1639   5.1639   5.3293   5.3293

          k = 0.5000 0.7500 0.5000 (  4640 PWs)   bands (ev):

   -96.0414 -96.0411 -96.0411 -96.0411 -57.6514 -57.6513 -57.6506 -57.6506
   -57.6479 -57.6478 -57.6477 -57.6477 -57.6436 -57.6435 -57.6429 -57.6429
    -3.5529  -3.5529  -3.5522  -3.5522   1.2600   1.2600   1.2624   1.2624
     4.6356   4.6356   4.6373   4.6373   5.5771   5.5771   5.5774   5.5774

          k = 0.5000 0.7500 0.7500 (  4630 PWs)   bands (ev):

   -96.0468 -96.0467 -96.0287 -96.0286 -57.6523 -57.6523 -57.6499 -57.6498
   -57.6485 -57.6483 -57.6460 -57.6459 -57.6431 -57.6430 -57.6422 -57.6422
    -3.9503  -3.9503  -3.1694  -3.1694   1.1668   1.1668   2.0744   2.0745
     3.7659   3.7659   4.8839   4.8839   5.1657   5.1657   5.3267   5.3267

          k = 0.7500 0.0000 0.0000 (  4661 PWs)   bands (ev):

   -96.0577 -96.0425 -96.0424 -96.0415 -57.6521 -57.6514 -57.6514 -57.6501
   -57.6487 -57.6477 -57.6476 -57.6470 -57.6445 -57.6438 -57.6437 -57.6425
    -4.9620  -3.3762  -2.7879  -2.7879   1.2012   1.2012   1.8429   3.7036
     3.7036   3.8510   3.8510   4.4746   4.4768   5.2764   5.9092   5.9118

          k = 0.7500 0.0000 0.2500 (  4645 PWs)   bands (ev):

   -96.0532 -96.0531 -96.0357 -96.0245 -57.6521 -57.6519 -57.6503 -57.6502
   -57.6485 -57.6483 -57.6460 -57.6459 -57.6444 -57.6442 -57.6425 -57.6424
    -4.7381  -3.2696  -3.2696  -2.8439   1.3231   1.7483   1.7484   2.9216
     3.8511   3.8513   4.1904   4.3712   4.3714   4.6370   5.3676   6.2456

          k = 0.7500 0.0000 0.5000 (  4654 PWs)   bands (ev):

   -96.0446 -96.0445 -96.0438 -96.0437 -57.6516 -57.6515 -57.6510 -57.6509
   -57.6479 -57.6478 -57.6472 -57.6471 -57.6440 -57.6438 -57.6434 -57.6433
    -4.1113  -4.1113  -3.0317  -3.0317   1.5322   1.5322   2.8670   2.8671
     3.0043   3.0043   4.4685   4.4685   4.5322   4.5322   5.4654   5.4654

          k = 0.7500 0.0000 0.7500 (  4645 PWs)   bands (ev):

   -96.0532 -96.0531 -96.0357 -96.0245 -57.6521 -57.6519 -57.6503 -57.6502
   -57.6485 -57.6483 -57.6460 -57.6459 -57.6444 -57.6442 -57.6425 -57.6424
    -4.7381  -3.2696  -3.2696  -2.8439   1.3231   1.7483   1.7484   2.9216
     3.8511   3.8513   4.1904   4.3712   4.3714   4.6370   5.3676   6.2456

          k = 0.7500 0.2500 0.0000 (  4645 PWs)   bands (ev):

   -96.0532 -96.0531 -96.0357 -96.0245 -57.6521 -57.6519 -57.6503 -57.6502
   -57.6485 -57.6483 -57.6460 -57.6459 -57.6444 -57.6442 -57.6425 -57.6424
    -4.7381  -3.2696  -3.2696  -2.8439   1.3231   1.7483   1.7484   2.9216
     3.8511   3.8513   4.1904   4.3712   4.3714   4.6370   5.3676   6.2456

          k = 0.7500 0.2500 0.2500 (  4632 PWs)   bands (ev):

   -96.0419 -96.0365 -96.0364 -96.0364 -57.6514 -57.6509 -57.6508 -57.6502
   -57.6475 -57.6471 -57.6468 -57.6466 -57.6433 -57.6432 -57.6431 -57.6421
    -4.5281  -3.2208  -3.2203  -3.2203   1.4434   1.4434   1.4456   3.1893
     3.6953   3.6955   3.6955   4.8207   4.8224   4.8224   5.9403   5.9430

          k = 0.7500 0.2500 0.5000 (  4630 PWs)   bands (ev):

   -96.0468 -96.0467 -96.0287 -96.0285 -57.6521 -57.6517 -57.6499 -57.6496
   -57.6478 -57.6477 -57.6461 -57.6461 -57.6442 -57.6440 -57.6423 -57.6420
    -3.9504  -3.9499  -3.1700  -3.1693   1.1668   1.1694   2.0723   2.0749
     3.7641   3.7643   4.8835   4.8854   5.1634   5.1657   5.3284   5.3286

          k = 0.7500 0.2500 0.7500 (  4632 PWs)   bands (ev):

   -96.0419 -96.0365 -96.0364 -96.0364 -57.6510 -57.6508 -57.6507 -57.6502
   -57.6475 -57.6468 -57.6466 -57.6466 -57.6437 -57.6432 -57.6431 -57.6425
    -4.5279  -3.2208  -3.2208  -3.2203   1.4441   1.4461   1.4462   3.1871
     3.6931   3.6931   3.6934   4.8225   4.8225   4.8231   5.9417   5.9432

          k = 0.7500 0.5000 0.0000 (  4654 PWs)   bands (ev):

   -96.0446 -96.0445 -96.0438 -96.0437 -57.6516 -57.6515 -57.6510 -57.6509
   -57.6479 -57.6478 -57.6472 -57.6471 -57.6440 -57.6438 -57.6434 -57.6433
    -4.1113  -4.1113  -3.0317  -3.0317   1.5322   1.5322   2.8670   2.8671
     3.0043   3.0043   4.4685   4.4685   4.5322   4.5322   5.4654   5.4654

          k = 0.7500 0.5000 0.2500 (  4630 PWs)   bands (ev):

   -96.0468 -96.0467 -96.0287 -96.0285 -57.6521 -57.6517 -57.6499 -57.6496
   -57.6478 -57.6477 -57.6461 -57.6461 -57.6442 -57.6440 -57.6423 -57.6420
    -3.9504  -3.9499  -3.1700  -3.1693   1.1668   1.1694   2.0723   2.0749
     3.7641   3.7643   4.8835   4.8854   5.1634   5.1657   5.3284   5.3286

          k = 0.7500 0.5000 0.5000 (  4640 PWs)   bands (ev):

   -96.0414 -96.0411 -96.0411 -96.0411 -57.6518 -57.6517 -57.6513 -57.6513
   -57.6468 -57.6466 -57.6466 -57.6465 -57.6441 -57.6440 -57.6437 -57.6437
    -3.5530  -3.5530  -3.5521  -3.5521   1.2597   1.2597   1.2627   1.2627
     4.6361   4.6362   4.6372   4.6372   5.5753   5.5753   5.5781   5.5781

          k = 0.7500 0.5000 0.7500 (  4630 PWs)   bands (ev):

   -96.0468 -96.0467 -96.0287 -96.0285 -57.6521 -57.6517 -57.6499 -57.6496
   -57.6478 -57.6477 -57.6461 -57.6461 -57.6442 -57.6440 -57.6423 -57.6420
    -3.9504  -3.9499  -3.1700  -3.1693   1.1668   1.1694   2.0723   2.0749
     3.7641   3.7643   4.8835   4.8854   5.1634   5.1657   5.3284   5.3286

          k = 0.7500 0.7500 0.0000 (  4645 PWs)   bands (ev):

   -96.0532 -96.0531 -96.0357 -96.0245 -57.6521 -57.6519 -57.6503 -57.6502
   -57.6485 -57.6483 -57.6460 -57.6459 -57.6444 -57.6442 -57.6425 -57.6424
    -4.7381  -3.2696  -3.2696  -2.8439   1.3231   1.7483   1.7484   2.9216
     3.8511   3.8513   4.1904   4.3712   4.3714   4.6370   5.3676   6.2456

          k = 0.7500 0.7500 0.2500 (  4632 PWs)   bands (ev):

   -96.0419 -96.0365 -96.0364 -96.0364 -57.6510 -57.6508 -57.6507 -57.6502
   -57.6475 -57.6468 -57.6466 -57.6466 -57.6437 -57.6432 -57.6431 -57.6425
    -4.5279  -3.2208  -3.2208  -3.2203   1.4441   1.4461   1.4462   3.1871
     3.6931   3.6931   3.6934   4.8225   4.8225   4.8231   5.9417   5.9432

          k = 0.7500 0.7500 0.5000 (  4630 PWs)   bands (ev):

   -96.0468 -96.0467 -96.0287 -96.0285 -57.6521 -57.6517 -57.6499 -57.6496
   -57.6478 -57.6477 -57.6461 -57.6461 -57.6442 -57.6440 -57.6423 -57.6420
    -3.9504  -3.9499  -3.1700  -3.1693   1.1668   1.1694   2.0723   2.0749
     3.7641   3.7643   4.8835   4.8854   5.1634   5.1657   5.3284   5.3286

          k = 0.7500 0.7500 0.7500 (  4632 PWs)   bands (ev):

   -96.0419 -96.0365 -96.0364 -96.0364 -57.6514 -57.6509 -57.6508 -57.6502
   -57.6475 -57.6471 -57.6468 -57.6466 -57.6433 -57.6432 -57.6431 -57.6421
    -4.5281  -3.2208  -3.2203  -3.2203   1.4434   1.4434   1.4456   3.1893
     3.6953   3.6955   3.6955   4.8207   4.8224   4.8224   5.9403   5.9430

     highest occupied level (ev):     6.3896

!    total energy              =    -606.74952735 Ry
     estimated scf accuracy    <          5.4E-10 Ry

     The total energy is the sum of the following terms:
     one-electron contribution =    -416.53942234 Ry
     hartree contribution      =     181.02367654 Ry
     xc contribution           =     -76.25713569 Ry
     ewald contribution        =    -294.78708931 Ry

     convergence has been achieved in   9 iterations

     Forces acting on atoms (cartesian axes, Ry/au):

     atom    1 type  1   force =     0.00315771    0.00001817    0.00001811
     atom    2 type  1   force =     0.00312712   -0.00001222    0.00000710
     atom    3 type  1   force =     0.00312709    0.00000716   -0.00001212
     atom    4 type  1   force =     0.00314668   -0.00001168   -0.00001162
     atom    5 type  2   force =    -0.00313658    0.00000284    0.00000293
     atom    6 type  2   force =    -0.00314356   -0.00000438    0.00000458
     atom    7 type  2   force =    -0.00314354    0.00000452   -0.00000445
     atom    8 type  2   force =    -0.00313491   -0.00000442   -0.00000452
     The non-local contrib.  to forces
     atom    1 type  1   force =    -0.01598067    0.00004004    0.00004270
     atom    2 type  1   force =    -0.01605025   -0.00002583    0.00002182
     atom    3 type  1   force =    -0.01605051    0.00001896   -0.00002855
     atom    4 type  1   force =    -0.01600210   -0.00002475   -0.00002770
     atom    5 type  2   force =    -0.01163692    0.00000906    0.00000853
     atom    6 type  2   force =    -0.01165404   -0.00000801    0.00001026
     atom    7 type  2   force =    -0.01165392    0.00001056   -0.00000784
     atom    8 type  2   force =    -0.01163507   -0.00000826   -0.00000783
     The ionic contribution  to forces
     atom    1 type  1   force =     0.00000000   -0.00000000   -0.00000000
     atom    2 type  1   force =     0.00000000   -0.00000000   -0.00000000
     atom    3 type  1   force =     0.00000000   -0.00000000   -0.00000000
     atom    4 type  1   force =    -0.00000000   -0.00000000   -0.00000000
     atom    5 type  2   force =     0.00000000    0.00000000   -0.00000000
     atom    6 type  2   force =     0.00000000    0.00000000    0.00000000
     atom    7 type  2   force =     0.00000000    0.00000000    0.00000000
     atom    8 type  2   force =     0.00000000    0.00000000    0.00000000
     The local contribution  to forces
     atom    1 type  1   force =     0.00358778   -0.00002275   -0.00001495
     atom    2 type  1   force =     0.00361907    0.00001596   -0.00000563
     atom    3 type  1   force =     0.00361812   -0.00001354    0.00000861
     atom    4 type  1   force =     0.00359622    0.00001610    0.00000763
     atom    5 type  2   force =     0.00142964   -0.00000647   -0.00000486
     atom    6 type  2   force =     0.00143938    0.00000469   -0.00000468
     atom    7 type  2   force =     0.00143916   -0.00000595    0.00000382
     atom    8 type  2   force =     0.00142962    0.00000527    0.00000364
     The core correction contribution to forces
     atom    1 type  1   force =     0.00000000    0.00000000    0.00000000
     atom    2 type  1   force =     0.00000000    0.00000000    0.00000000
     atom    3 type  1   force =     0.00000000    0.00000000    0.00000000
     atom    4 type  1   force =     0.00000000    0.00000000    0.00000000
     atom    5 type  2   force =     0.00000000    0.00000000    0.00000000
     atom    6 type  2   force =     0.00000000    0.00000000    0.00000000
     atom    7 type  2   force =     0.00000000    0.00000000    0.00000000
     atom    8 type  2   force =     0.00000000    0.00000000    0.00000000
     The Hubbard contrib.    to forces
     atom    1 type  1   force =     0.00000000    0.00000000    0.00000000
     atom    2 type  1   force =     0.00000000    0.00000000    0.00000000
     atom    3 type  1   force =     0.00000000    0.00000000    0.00000000
     atom    4 type  1   force =     0.00000000    0.00000000    0.00000000
     atom    5 type  2   force =     0.00000000    0.00000000    0.00000000
     atom    6 type  2   force =     0.00000000    0.00000000    0.00000000
     atom    7 type  2   force =     0.00000000    0.00000000    0.00000000
     atom    8 type  2   force =     0.00000000    0.00000000    0.00000000
     The SCF correction term to forces
     atom    1 type  1   force =    -0.00000517    0.00000151   -0.00000902
     atom    2 type  1   force =     0.00000253   -0.00000172   -0.00000848
     atom    3 type  1   force =     0.00000371    0.00000236    0.00000843
     atom    4 type  1   force =    -0.00000321   -0.00000241    0.00000907
     atom    5 type  2   force =     0.00000022    0.00000088   -0.00000012
     atom    6 type  2   force =     0.00000061   -0.00000043   -0.00000038
     atom    7 type  2   force =     0.00000073    0.00000053    0.00000019
     atom    8 type  2   force =     0.00000004   -0.00000080    0.00000028

     Total force =     0.008880     Total SCF correction =     0.000020

     BFGS Geometry Optimization
     Energy error            =      0.0E+00 Ry
     Gradient error          =      3.2E-03 Ry/Bohr

     number of scf cycles    =   1
     number of bfgs steps    =   0

     energy             new  =    -606.7495273529 Ry

     new trust radius        =       0.0031578153 bohr
     new conv_thr            =       0.0000000100 Ry


ATOMIC_POSITIONS (alat)
Al           -0.1246928297       -0.1249982321       -0.1249982385
Al            0.3753041942        0.3749988115       -0.1249993092
Al            0.3753041917       -0.1249993038        0.3749988206
Al           -0.1246939029        0.3749988643        0.3749988694
P             0.1246948852        0.1250002764        0.1250002854
P             0.6246942060        0.6249995743        0.1250004454
P             0.6246942080        0.1250004395        0.6249995667
P             0.1246950474        0.6249995700        0.6249995602



     Writing config-only to output data dir ../tmp/alp.save/
     NEW-OLD atomic charge density approx. for the potential

     total cpu time spent up to now is      178.2 secs

     Self-consistent Calculation

     iteration #  1     ecut=    40.00 Ry     beta= 0.50
     Davidson diagonalization with overlap
     ethr =  1.00E-06,  avg # of iterations =  3.0
     Davidson diagonalization with overlap
     ethr =  1.00E-06,  avg # of iterations =  1.1
     Davidson diagonalization with overlap
     ethr =  1.00E-06,  avg # of iterations =  1.0

     Threshold (ethr) on eigenvalues was too large:
     Diagonalizing with lowered threshold

     Davidson diagonalization with overlap
     ethr =  4.16E-09,  avg # of iterations =  4.0
     Davidson diagonalization with overlap
     ethr =  4.16E-09,  avg # of iterations =  1.1
     Davidson diagonalization with overlap
     ethr =  4.16E-09,  avg # of iterations =  1.0
 
     Expectation value of exp(iGx): (0.192847415061818,2.266242485062406E-002)
   1.00000000000000     
     Electronic Dipole per cell (Ry a.u.)  0.541331744044954     
     Ionic Dipole per cell (Ry a.u.)   189.102063696504     
 
     Expectation value of exp(iGx): (0.194230035195018,-5.905782593455377E-007)
   1.00000000000000     
     Electronic Dipole per cell (Ry a.u.) -1.407081672786967E-005
     Ionic Dipole per cell (Ry a.u.)   188.995512675875     
 
     Expectation value of exp(iGx): (0.194230035629664,-5.740055740797567E-007)
   1.00000000000000     
     Electronic Dipole per cell (Ry a.u.) -1.367596434132682E-005
     Ionic Dipole per cell (Ry a.u.)   188.995512887753     
Electronic Dipole on Cartesian axes
           1  0.541331744044954     
           2 -1.407081672786967E-005
           3 -1.367596434132682E-005
Ionic Dipole on Cartesian axes
           1   189.102063696504     
           2   188.995512675875     
           3   188.995512887753     

     total cpu time spent up to now is      213.8 secs

     total energy              =    -606.74958883 Ry
     estimated scf accuracy    <       0.00000360 Ry

     iteration #  2     ecut=    40.00 Ry     beta= 0.50
     Davidson diagonalization with overlap
     ethr =  5.63E-09,  avg # of iterations =  2.0
     Davidson diagonalization with overlap
     ethr =  5.63E-09,  avg # of iterations =  1.0
     Davidson diagonalization with overlap
     ethr =  5.63E-09,  avg # of iterations =  1.0
 
     Expectation value of exp(iGx): (0.192877919914277,2.239688774098783E-002)
   1.00000000000000     
     Electronic Dipole per cell (Ry a.u.)  0.534961761332324     
     Ionic Dipole per cell (Ry a.u.)   189.102063696504     
 
     Expectation value of exp(iGx): (0.194229715501229,-6.373912045218484E-007)
   1.00000000000000     
     Electronic Dipole per cell (Ry a.u.) -1.518618310579824E-005
     Ionic Dipole per cell (Ry a.u.)   188.995512675875     
 
     Expectation value of exp(iGx): (0.194229714569697,-6.254306032058444E-007)
   1.00000000000000     
     Electronic Dipole per cell (Ry a.u.) -1.490121551477614E-005
     Ionic Dipole per cell (Ry a.u.)   188.995512887753     
Electronic Dipole on Cartesian axes
           1  0.534961761332324     
           2 -1.518618310579824E-005
           3 -1.490121551477614E-005
Ionic Dipole on Cartesian axes
           1   189.102063696504     
           2   188.995512675875     
           3   188.995512887753     

     total cpu time spent up to now is      230.4 secs

     total energy              =    -606.74958832 Ry
     estimated scf accuracy    <       0.00000046 Ry

     iteration #  3     ecut=    40.00 Ry     beta= 0.50
     Davidson diagonalization with overlap
     ethr =  7.23E-10,  avg # of iterations =  1.1
     Davidson diagonalization with overlap
     ethr =  7.23E-10,  avg # of iterations =  1.0
     Davidson diagonalization with overlap
     ethr =  7.23E-10,  avg # of iterations =  1.0
 
     Expectation value of exp(iGx): (0.192885447048962,2.233411437079278E-002)
   1.00000000000000     
     Electronic Dipole per cell (Ry a.u.)  0.533455018330898     
     Ionic Dipole per cell (Ry a.u.)   189.102063696504     
 
     Expectation value of exp(iGx): (0.194229863498395,-6.429518752705792E-007)
   1.00000000000000     
     Electronic Dipole per cell (Ry a.u.) -1.531865735979262E-005
     Ionic Dipole per cell (Ry a.u.)   188.995512675875     
 
     Expectation value of exp(iGx): (0.194229862178755,-6.406469169749525E-007)
   1.00000000000000     
     Electronic Dipole per cell (Ry a.u.) -1.526374065290640E-005
     Ionic Dipole per cell (Ry a.u.)   188.995512887753     
Electronic Dipole on Cartesian axes
           1  0.533455018330898     
           2 -1.531865735979262E-005
           3 -1.526374065290640E-005
Ionic Dipole on Cartesian axes
           1   189.102063696504     
           2   188.995512675875     
           3   188.995512887753     

     total cpu time spent up to now is      246.1 secs

     total energy              =    -606.74958847 Ry
     estimated scf accuracy    <       0.00000005 Ry

     iteration #  4     ecut=    40.00 Ry     beta= 0.50
     Davidson diagonalization with overlap
     ethr =  7.40E-11,  avg # of iterations =  1.0
     Davidson diagonalization with overlap
     ethr =  7.40E-11,  avg # of iterations =  1.0
     Davidson diagonalization with overlap
     ethr =  7.40E-11,  avg # of iterations =  1.0
 
     Expectation value of exp(iGx): (0.192885661199644,2.233300655159820E-002)
   1.00000000000000     
     Electronic Dipole per cell (Ry a.u.)  0.533428204606905     
     Ionic Dipole per cell (Ry a.u.)   189.102063696504     
 
     Expectation value of exp(iGx): (0.194229913212619,-6.440861605829570E-007)
   1.00000000000000     
     Electronic Dipole per cell (Ry a.u.) -1.534567835984900E-005
     Ionic Dipole per cell (Ry a.u.)   188.995512675875     
 
     Expectation value of exp(iGx): (0.194229912415080,-6.416241439080074E-007)
   1.00000000000000     
     Electronic Dipole per cell (Ry a.u.) -1.528701963078802E-005
     Ionic Dipole per cell (Ry a.u.)   188.995512887753     
Electronic Dipole on Cartesian axes
           1  0.533428204606905     
           2 -1.534567835984900E-005
           3 -1.528701963078802E-005
Ionic Dipole on Cartesian axes
           1   189.102063696504     
           2   188.995512675875     
           3   188.995512887753     

     total cpu time spent up to now is      261.9 secs

     End of self-consistent calculation

          k = 0.0000 0.0000 0.0000 (  4697 PWs)   bands (ev):

   -96.0914 -96.0451 -96.0449 -96.0449 -57.6544 -57.6524 -57.6522 -57.6521
   -57.6501 -57.6482 -57.6480 -57.6478 -57.6457 -57.6437 -57.6436 -57.6435
    -5.1962  -2.8131  -2.8130  -2.8130   1.0326   1.0326   1.0327   4.2542
     4.2587   4.2588   4.2590   4.2590   4.2620   6.3804   6.3888   6.3960

          k = 0.0000 0.0000 0.2500 (  4661 PWs)   bands (ev):

   -96.0578 -96.0426 -96.0425 -96.0416 -57.6522 -57.6520 -57.6520 -57.6519
   -57.6485 -57.6478 -57.6477 -57.6465 -57.6435 -57.6433 -57.6433 -57.6431
    -4.9619  -3.3761  -2.7878  -2.7878   1.2012   1.2012   1.8428   3.7033
     3.7037   3.8508   3.8510   4.4762   4.4765   5.2763   5.9108   5.9109

          k = 0.0000 0.0000 0.5000 (  4636 PWs)   bands (ev):

   -96.0534 -96.0532 -96.0238 -96.0237 -57.6521 -57.6520 -57.6503 -57.6502
   -57.6484 -57.6483 -57.6465 -57.6464 -57.6434 -57.6432 -57.6416 -57.6415
    -4.2990  -4.2989  -2.7616  -2.7615   1.4319   1.4320   3.1741   3.1741
     3.4850   3.4850   3.5355   3.5355   5.0832   5.0832   5.0835   5.0835

          k = 0.0000 0.0000 0.7500 (  4661 PWs)   bands (ev):

   -96.0578 -96.0426 -96.0425 -96.0416 -57.6522 -57.6520 -57.6520 -57.6519
   -57.6485 -57.6478 -57.6477 -57.6465 -57.6435 -57.6433 -57.6433 -57.6431
    -4.9619  -3.3761  -2.7878  -2.7878   1.2012   1.2012   1.8428   3.7033
     3.7037   3.8508   3.8510   4.4762   4.4765   5.2763   5.9108   5.9109

          k = 0.0000 0.2500 0.0000 (  4661 PWs)   bands (ev):

   -96.0578 -96.0426 -96.0425 -96.0416 -57.6522 -57.6520 -57.6520 -57.6519
   -57.6485 -57.6478 -57.6477 -57.6465 -57.6435 -57.6433 -57.6433 -57.6431
    -4.9619  -3.3761  -2.7878  -2.7878   1.2012   1.2012   1.8428   3.7033
     3.7037   3.8508   3.8510   4.4762   4.4765   5.2763   5.9108   5.9109

          k = 0.0000 0.2500 0.2500 (  4645 PWs)   bands (ev):

   -96.0533 -96.0532 -96.0358 -96.0246 -57.6531 -57.6530 -57.6507 -57.6493
   -57.6482 -57.6480 -57.6472 -57.6469 -57.6439 -57.6438 -57.6424 -57.6413
    -4.7379  -3.2701  -3.2700  -2.8432   1.3214   1.7518   1.7518   2.9187
     3.8513   3.8513   4.1847   4.3677   4.3677   4.6408   5.3680   6.2530

          k = 0.0000 0.2500 0.5000 (  4654 PWs)   bands (ev):

   -96.0447 -96.0446 -96.0439 -96.0438 -57.6525 -57.6520 -57.6516 -57.6513
   -57.6477 -57.6476 -57.6474 -57.6474 -57.6439 -57.6434 -57.6430 -57.6426
    -4.1117  -4.1109  -3.0325  -3.0308   1.5281   1.5363   2.8620   2.8722
     3.0036   3.0052   4.4682   4.4687   4.5272   4.5368   5.4593   5.4716

          k = 0.0000 0.2500 0.7500 (  4645 PWs)   bands (ev):

   -96.0533 -96.0532 -96.0358 -96.0246 -57.6526 -57.6525 -57.6510 -57.6500
   -57.6482 -57.6480 -57.6471 -57.6469 -57.6444 -57.6443 -57.6421 -57.6407
    -4.7383  -3.2690  -3.2690  -2.8445   1.3250   1.7449   1.7449   2.9245
     3.8514   3.8514   4.1963   4.3752   4.3752   4.6320   5.3675   6.2377

          k = 0.0000 0.5000 0.0000 (  4636 PWs)   bands (ev):

   -96.0534 -96.0532 -96.0238 -96.0237 -57.6521 -57.6520 -57.6503 -57.6502
   -57.6484 -57.6483 -57.6465 -57.6464 -57.6434 -57.6432 -57.6416 -57.6415
    -4.2990  -4.2989  -2.7616  -2.7615   1.4319   1.4320   3.1741   3.1741
     3.4850   3.4850   3.5355   3.5355   5.0832   5.0832   5.0835   5.0835

          k = 0.0000 0.5000 0.2500 (  4654 PWs)   bands (ev):

   -96.0447 -96.0446 -96.0439 -96.0438 -57.6525 -57.6520 -57.6516 -57.6513
   -57.6477 -57.6476 -57.6474 -57.6474 -57.6439 -57.6434 -57.6430 -57.6426
    -4.1117  -4.1109  -3.0325  -3.0308   1.5281   1.5363   2.8620   2.8722
     3.0036   3.0052   4.4682   4.4687   4.5272   4.5368   5.4593   5.4716

          k = 0.0000 0.5000 0.5000 (  4636 PWs)   bands (ev):

   -96.0399 -96.0397 -96.0397 -96.0397 -57.6521 -57.6520 -57.6513 -57.6512
   -57.6473 -57.6471 -57.6471 -57.6470 -57.6435 -57.6433 -57.6426 -57.6425
    -3.6131  -3.6131  -3.6115  -3.6115   2.0061   2.0061   2.0168   2.0168
     3.5234   3.5234   3.5237   3.5237   5.5325   5.5325   5.5445   5.5446

          k = 0.0000 0.5000 0.7500 (  4654 PWs)   bands (ev):

   -96.0447 -96.0446 -96.0439 -96.0438 -57.6525 -57.6520 -57.6516 -57.6513
   -57.6477 -57.6476 -57.6474 -57.6474 -57.6439 -57.6434 -57.6430 -57.6426
    -4.1117  -4.1109  -3.0325  -3.0308   1.5281   1.5363   2.8620   2.8722
     3.0036   3.0052   4.4682   4.4687   4.5272   4.5368   5.4593   5.4716

          k = 0.0000 0.7500 0.0000 (  4661 PWs)   bands (ev):

   -96.0578 -96.0426 -96.0425 -96.0416 -57.6522 -57.6520 -57.6520 -57.6519
   -57.6485 -57.6478 -57.6477 -57.6465 -57.6435 -57.6433 -57.6433 -57.6431
    -4.9619  -3.3761  -2.7878  -2.7878   1.2012   1.2012   1.8428   3.7033
     3.7037   3.8508   3.8510   4.4762   4.4765   5.2763   5.9108   5.9109

          k = 0.0000 0.7500 0.2500 (  4645 PWs)   bands (ev):

   -96.0533 -96.0532 -96.0358 -96.0246 -57.6526 -57.6525 -57.6510 -57.6500
   -57.6482 -57.6480 -57.6471 -57.6469 -57.6444 -57.6443 -57.6421 -57.6407
    -4.7383  -3.2690  -3.2690  -2.8445   1.3250   1.7449   1.7449   2.9245
     3.8514   3.8514   4.1963   4.3752   4.3752   4.6320   5.3675   6.2377

          k = 0.0000 0.7500 0.5000 (  4654 PWs)   bands (ev):

   -96.0447 -96.0446 -96.0439 -96.0438 -57.6525 -57.6520 -57.6516 -57.6513
   -57.6477 -57.6476 -57.6474 -57.6474 -57.6439 -57.6434 -57.6430 -57.6426
    -4.1117  -4.1109  -3.0325  -3.0308   1.5281   1.5363   2.8620   2.8722
     3.0036   3.0052   4.4682   4.4687   4.5272   4.5368   5.4593   5.4716

          k = 0.0000 0.7500 0.7500 (  4645 PWs)   bands (ev):

   -96.0533 -96.0532 -96.0358 -96.0246 -57.6531 -57.6530 -57.6507 -57.6493
   -57.6482 -57.6480 -57.6472 -57.6469 -57.6439 -57.6438 -57.6424 -57.6413
    -4.7379  -3.2701  -3.2700  -2.8432   1.3214   1.7518   1.7518   2.9187
     3.8513   3.8513   4.1847   4.3677   4.3677   4.6408   5.3680   6.2530

          k = 0.2500 0.0000 0.0000 (  4661 PWs)   bands (ev):

   -96.0578 -96.0427 -96.0425 -96.0416 -57.6527 -57.6521 -57.6520 -57.6507
   -57.6489 -57.6478 -57.6477 -57.6471 -57.6441 -57.6434 -57.6433 -57.6421
    -4.9619  -3.3761  -2.7878  -2.7878   1.2012   1.2012   1.8430   3.7036
     3.7037   3.8510   3.8510   4.4716   4.4798   5.2765   5.9041   5.9169

          k = 0.2500 0.0000 0.2500 (  4645 PWs)   bands (ev):

   -96.0533 -96.0532 -96.0358 -96.0246 -57.6527 -57.6525 -57.6509 -57.6508
   -57.6486 -57.6484 -57.6461 -57.6460 -57.6440 -57.6438 -57.6421 -57.6419
    -4.7381  -3.2695  -3.2695  -2.8438   1.3231   1.7483   1.7484   2.9216
     3.8511   3.8514   4.1904   4.3713   4.3714   4.6370   5.3677   6.2457

          k = 0.2500 0.0000 0.5000 (  4654 PWs)   bands (ev):

   -96.0447 -96.0446 -96.0439 -96.0438 -57.6522 -57.6521 -57.6516 -57.6515
   -57.6480 -57.6479 -57.6473 -57.6472 -57.6435 -57.6434 -57.6429 -57.6428
    -4.1113  -4.1113  -3.0317  -3.0316   1.5322   1.5322   2.8671   2.8671
     3.0043   3.0043   4.4685   4.4685   4.5322   4.5322   5.4655   5.4655

          k = 0.2500 0.0000 0.7500 (  4645 PWs)   bands (ev):

   -96.0533 -96.0532 -96.0358 -96.0246 -57.6527 -57.6525 -57.6509 -57.6508
   -57.6486 -57.6484 -57.6461 -57.6460 -57.6440 -57.6438 -57.6421 -57.6419
    -4.7381  -3.2695  -3.2695  -2.8438   1.3231   1.7483   1.7484   2.9216
     3.8511   3.8514   4.1904   4.3713   4.3714   4.6370   5.3677   6.2457

          k = 0.2500 0.2500 0.0000 (  4645 PWs)   bands (ev):

   -96.0533 -96.0532 -96.0358 -96.0246 -57.6527 -57.6525 -57.6509 -57.6508
   -57.6486 -57.6484 -57.6461 -57.6460 -57.6440 -57.6438 -57.6421 -57.6419
    -4.7381  -3.2695  -3.2695  -2.8438   1.3231   1.7483   1.7484   2.9216
     3.8511   3.8514   4.1904   4.3713   4.3714   4.6370   5.3677   6.2457

          k = 0.2500 0.2500 0.2500 (  4632 PWs)   bands (ev):

   -96.0419 -96.0366 -96.0365 -96.0365 -57.6520 -57.6515 -57.6514 -57.6508
   -57.6476 -57.6472 -57.6469 -57.6467 -57.6429 -57.6427 -57.6426 -57.6417
    -4.5277  -3.2211  -3.2211  -3.2200   1.4429   1.4483   1.4483   3.1851
     3.6908   3.6909   3.6915   4.8228   4.8228   4.8266   5.9393   5.9486

          k = 0.2500 0.2500 0.5000 (  4630 PWs)   bands (ev):

   -96.0469 -96.0468 -96.0288 -96.0286 -57.6527 -57.6523 -57.6506 -57.6502
   -57.6479 -57.6478 -57.6463 -57.6462 -57.6438 -57.6435 -57.6419 -57.6415
    -3.9506  -3.9496  -3.1704  -3.1688   1.1648   1.1714   2.0701   2.0772
     3.7638   3.7646   4.8810   4.8880   5.1603   5.1688   5.3280   5.3292

          k = 0.2500 0.2500 0.7500 (  4632 PWs)   bands (ev):

   -96.0420 -96.0366 -96.0365 -96.0365 -57.6516 -57.6514 -57.6513 -57.6508
   -57.6476 -57.6469 -57.6467 -57.6467 -57.6433 -57.6428 -57.6427 -57.6421
    -4.5282  -3.2210  -3.2200  -3.2199   1.4413   1.4413   1.4468   3.1914
     3.6973   3.6978   3.6979   4.8173   4.8222   4.8222   5.9350   5.9455

          k = 0.2500 0.5000 0.0000 (  4654 PWs)   bands (ev):

   -96.0447 -96.0446 -96.0439 -96.0438 -57.6522 -57.6521 -57.6516 -57.6515
   -57.6480 -57.6479 -57.6473 -57.6472 -57.6435 -57.6434 -57.6429 -57.6428
    -4.1113  -4.1113  -3.0317  -3.0316   1.5322   1.5322   2.8671   2.8671
     3.0043   3.0043   4.4685   4.4685   4.5322   4.5323   5.4655   5.4655

          k = 0.2500 0.5000 0.2500 (  4630 PWs)   bands (ev):

   -96.0469 -96.0468 -96.0288 -96.0286 -57.6527 -57.6523 -57.6506 -57.6502
   -57.6480 -57.6478 -57.6463 -57.6462 -57.6438 -57.6435 -57.6419 -57.6415
    -3.9506  -3.9496  -3.1704  -3.1688   1.1648   1.1714   2.0701   2.0772
     3.7638   3.7646   4.8810   4.8880   5.1603   5.1688   5.3280   5.3292

          k = 0.2500 0.5000 0.5000 (  4640 PWs)   bands (ev):

   -96.0415 -96.0412 -96.0412 -96.0412 -57.6525 -57.6523 -57.6519 -57.6519
   -57.6469 -57.6467 -57.6467 -57.6466 -57.6437 -57.6436 -57.6433 -57.6432
    -3.5534  -3.5534  -3.5516  -3.5516   1.2575   1.2575   1.2649   1.2650
     4.6347   4.6347   4.6387   4.6387   5.5705   5.5706   5.5829   5.5830

          k = 0.2500 0.5000 0.7500 (  4630 PWs)   bands (ev):

   -96.0469 -96.0468 -96.0288 -96.0286 -57.6527 -57.6523 -57.6506 -57.6502
   -57.6480 -57.6478 -57.6463 -57.6462 -57.6438 -57.6435 -57.6419 -57.6415
    -3.9506  -3.9496  -3.1704  -3.1688   1.1648   1.1714   2.0701   2.0772
     3.7638   3.7646   4.8810   4.8880   5.1603   5.1688   5.3280   5.3292

          k = 0.2500 0.7500 0.0000 (  4645 PWs)   bands (ev):

   -96.0533 -96.0532 -96.0358 -96.0246 -57.6527 -57.6525 -57.6509 -57.6508
   -57.6486 -57.6484 -57.6461 -57.6460 -57.6440 -57.6438 -57.6421 -57.6419
    -4.7381  -3.2695  -3.2695  -2.8438   1.3231   1.7483   1.7484   2.9216
     3.8511   3.8514   4.1904   4.3713   4.3714   4.6370   5.3677   6.2457

          k = 0.2500 0.7500 0.2500 (  4632 PWs)   bands (ev):

   -96.0420 -96.0366 -96.0365 -96.0365 -57.6516 -57.6514 -57.6513 -57.6508
   -57.6476 -57.6469 -57.6467 -57.6467 -57.6433 -57.6428 -57.6427 -57.6421
    -4.5282  -3.2210  -3.2200  -3.2199   1.4413   1.4413   1.4468   3.1914
     3.6973   3.6978   3.6979   4.8173   4.8222   4.8222   5.9350   5.9455

          k = 0.2500 0.7500 0.5000 (  4630 PWs)   bands (ev):

   -96.0469 -96.0468 -96.0288 -96.0286 -57.6527 -57.6523 -57.6506 -57.6502
   -57.6480 -57.6478 -57.6463 -57.6462 -57.6438 -57.6435 -57.6419 -57.6415
    -3.9506  -3.9496  -3.1704  -3.1688   1.1648   1.1714   2.0701   2.0772
     3.7638   3.7646   4.8810   4.8880   5.1603   5.1688   5.3280   5.3292

          k = 0.2500 0.7500 0.7500 (  4632 PWs)   bands (ev):

   -96.0419 -96.0366 -96.0365 -96.0365 -57.6520 -57.6515 -57.6514 -57.6508
   -57.6476 -57.6472 -57.6469 -57.6467 -57.6429 -57.6427 -57.6426 -57.6417
    -4.5277  -3.2211  -3.2211  -3.2200   1.4429   1.4483   1.4483   3.1851
     3.6908   3.6909   3.6915   4.8228   4.8228   4.8266   5.9393   5.9486

          k = 0.5000 0.0000 0.0000 (  4636 PWs)   bands (ev):

   -96.0534 -96.0532 -96.0238 -96.0237 -57.6526 -57.6525 -57.6507 -57.6506
   -57.6473 -57.6471 -57.6456 -57.6454 -57.6440 -57.6439 -57.6421 -57.6420
    -4.2990  -4.2989  -2.7616  -2.7615   1.4319   1.4319   3.1741   3.1741
     3.4851   3.4851   3.5355   3.5355   5.0780   5.0780   5.0877   5.0878

          k = 0.5000 0.0000 0.2500 (  4654 PWs)   bands (ev):

   -96.0447 -96.0446 -96.0439 -96.0438 -57.6521 -57.6520 -57.6516 -57.6516
   -57.6482 -57.6481 -57.6473 -57.6471 -57.6434 -57.6433 -57.6430 -57.6429
    -4.1113  -4.1113  -3.0317  -3.0316   1.5322   1.5322   2.8671   2.8671
     3.0044   3.0044   4.4683   4.4683   4.5322   4.5322   5.4654   5.4654

          k = 0.5000 0.0000 0.5000 (  4636 PWs)   bands (ev):

   -96.0399 -96.0397 -96.0397 -96.0397 -57.6517 -57.6515 -57.6515 -57.6515
   -57.6476 -57.6474 -57.6473 -57.6473 -57.6430 -57.6428 -57.6428 -57.6428
    -3.6124  -3.6123  -3.6123  -3.6123   2.0114   2.0114   2.0114   2.0115
     3.5235   3.5235   3.5235   3.5235   5.5390   5.5390   5.5391   5.5391

          k = 0.5000 0.0000 0.7500 (  4654 PWs)   bands (ev):

   -96.0447 -96.0446 -96.0439 -96.0438 -57.6521 -57.6520 -57.6516 -57.6516
   -57.6482 -57.6481 -57.6473 -57.6471 -57.6434 -57.6433 -57.6430 -57.6429
    -4.1113  -4.1113  -3.0317  -3.0316   1.5322   1.5322   2.8671   2.8671
     3.0044   3.0044   4.4683   4.4683   4.5322   4.5322   5.4654   5.4654

          k = 0.5000 0.2500 0.0000 (  4654 PWs)   bands (ev):

   -96.0447 -96.0446 -96.0439 -96.0438 -57.6521 -57.6520 -57.6516 -57.6516
   -57.6482 -57.6481 -57.6473 -57.6471 -57.6434 -57.6433 -57.6430 -57.6429
    -4.1113  -4.1113  -3.0317  -3.0316   1.5322   1.5322   2.8671   2.8671
     3.0044   3.0044   4.4683   4.4683   4.5322   4.5322   5.4654   5.4654

          k = 0.5000 0.2500 0.2500 (  4630 PWs)   bands (ev):

   -96.0469 -96.0468 -96.0288 -96.0286 -57.6530 -57.6529 -57.6505 -57.6504
   -57.6486 -57.6484 -57.6461 -57.6460 -57.6427 -57.6426 -57.6418 -57.6417
    -3.9498  -3.9497  -3.1702  -3.1702   1.1714   1.1715   2.0714   2.0714
     3.7590   3.7590   4.8873   4.8874   5.1615   5.1616   5.3335   5.3335

          k = 0.5000 0.2500 0.5000 (  4640 PWs)   bands (ev):

   -96.0415 -96.0412 -96.0412 -96.0412 -57.6520 -57.6519 -57.6513 -57.6512
   -57.6481 -57.6479 -57.6478 -57.6478 -57.6432 -57.6431 -57.6425 -57.6424
    -3.5532  -3.5531  -3.5519  -3.5518   1.2581   1.2581   1.2643   1.2643
     4.6333   4.6334   4.6396   4.6396   5.5766   5.5767   5.5780   5.5780

          k = 0.5000 0.2500 0.7500 (  4630 PWs)   bands (ev):

   -96.0469 -96.0468 -96.0288 -96.0286 -57.6514 -57.6512 -57.6505 -57.6504
   -57.6486 -57.6484 -57.6461 -57.6459 -57.6443 -57.6442 -57.6419 -57.6418
    -3.9504  -3.9504  -3.1690  -3.1690   1.1647   1.1647   2.0759   2.0759
     3.7694   3.7694   4.8820   4.8820   5.1681   5.1682   5.3225   5.3226

          k = 0.5000 0.5000 0.0000 (  4636 PWs)   bands (ev):

   -96.0399 -96.0397 -96.0397 -96.0397 -57.6517 -57.6515 -57.6515 -57.6515
   -57.6476 -57.6474 -57.6473 -57.6473 -57.6430 -57.6428 -57.6428 -57.6428
    -3.6124  -3.6123  -3.6123  -3.6123   2.0114   2.0114   2.0114   2.0115
     3.5235   3.5235   3.5235   3.5235   5.5390   5.5390   5.5391   5.5391

          k = 0.5000 0.5000 0.2500 (  4640 PWs)   bands (ev):

   -96.0415 -96.0412 -96.0412 -96.0412 -57.6520 -57.6519 -57.6513 -57.6512
   -57.6481 -57.6479 -57.6478 -57.6478 -57.6432 -57.6431 -57.6425 -57.6424
    -3.5532  -3.5531  -3.5519  -3.5518   1.2581   1.2581   1.2643   1.2643
     4.6333   4.6334   4.6396   4.6396   5.5766   5.5767   5.5780   5.5780

          k = 0.5000 0.5000 0.5000 (  4680 PWs)   bands (ev):

   -96.0543 -96.0541 -96.0541 -96.0541 -57.6536 -57.6535 -57.6525 -57.6524
   -57.6489 -57.6487 -57.6487 -57.6485 -57.6447 -57.6446 -57.6438 -57.6437
    -3.4894  -3.4894  -3.4875  -3.4875   0.7979   0.7979   0.8048   0.8048
     5.6106   5.6106   5.6143   5.6144   5.6213   5.6213   5.6233   5.6234

          k = 0.5000 0.5000 0.7500 (  4640 PWs)   bands (ev):

   -96.0415 -96.0412 -96.0412 -96.0412 -57.6520 -57.6519 -57.6513 -57.6512
   -57.6481 -57.6479 -57.6478 -57.6478 -57.6432 -57.6431 -57.6425 -57.6424
    -3.5532  -3.5531  -3.5519  -3.5518   1.2581   1.2581   1.2643   1.2643
     4.6333   4.6334   4.6396   4.6396   5.5766   5.5767   5.5780   5.5780

          k = 0.5000 0.7500 0.0000 (  4654 PWs)   bands (ev):

   -96.0447 -96.0446 -96.0439 -96.0438 -57.6521 -57.6520 -57.6516 -57.6516
   -57.6482 -57.6481 -57.6473 -57.6471 -57.6434 -57.6433 -57.6430 -57.6429
    -4.1113  -4.1113  -3.0317  -3.0316   1.5322   1.5322   2.8671   2.8671
     3.0044   3.0044   4.4683   4.4683   4.5322   4.5322   5.4654   5.4654

          k = 0.5000 0.7500 0.2500 (  4630 PWs)   bands (ev):

   -96.0469 -96.0468 -96.0288 -96.0286 -57.6514 -57.6512 -57.6505 -57.6504
   -57.6486 -57.6484 -57.6461 -57.6459 -57.6443 -57.6442 -57.6419 -57.6418
    -3.9504  -3.9504  -3.1690  -3.1690   1.1647   1.1647   2.0759   2.0759
     3.7694   3.7694   4.8820   4.8820   5.1681   5.1682   5.3225   5.3226

          k = 0.5000 0.7500 0.5000 (  4640 PWs)   bands (ev):

   -96.0415 -96.0412 -96.0412 -96.0412 -57.6520 -57.6519 -57.6513 -57.6512
   -57.6481 -57.6479 -57.6478 -57.6478 -57.6432 -57.6431 -57.6425 -57.6424
    -3.5532  -3.5531  -3.5519  -3.5518   1.2581   1.2581   1.2643   1.2643
     4.6333   4.6334   4.6396   4.6396   5.5766   5.5767   5.5780   5.5780

          k = 0.5000 0.7500 0.7500 (  4630 PWs)   bands (ev):

   -96.0469 -96.0468 -96.0288 -96.0286 -57.6530 -57.6529 -57.6505 -57.6504
   -57.6486 -57.6484 -57.6461 -57.6460 -57.6427 -57.6426 -57.6418 -57.6417
    -3.9498  -3.9497  -3.1702  -3.1702   1.1714   1.1715   2.0714   2.0714
     3.7590   3.7590   4.8873   4.8874   5.1615   5.1616   5.3335   5.3335

          k = 0.7500 0.0000 0.0000 (  4661 PWs)   bands (ev):

   -96.0578 -96.0427 -96.0425 -96.0416 -57.6527 -57.6521 -57.6520 -57.6507
   -57.6489 -57.6478 -57.6477 -57.6471 -57.6441 -57.6434 -57.6433 -57.6421
    -4.9619  -3.3761  -2.7878  -2.7878   1.2012   1.2012   1.8430   3.7036
     3.7037   3.8510   3.8510   4.4716   4.4798   5.2765   5.9041   5.9169

          k = 0.7500 0.0000 0.2500 (  4645 PWs)   bands (ev):

   -96.0533 -96.0532 -96.0358 -96.0246 -57.6527 -57.6525 -57.6509 -57.6508
   -57.6486 -57.6484 -57.6461 -57.6460 -57.6440 -57.6438 -57.6421 -57.6419
    -4.7381  -3.2695  -3.2695  -2.8438   1.3231   1.7483   1.7484   2.9216
     3.8511   3.8514   4.1904   4.3713   4.3714   4.6370   5.3677   6.2457

          k = 0.7500 0.0000 0.5000 (  4654 PWs)   bands (ev):

   -96.0447 -96.0446 -96.0439 -96.0438 -57.6522 -57.6521 -57.6516 -57.6515
   -57.6480 -57.6479 -57.6473 -57.6472 -57.6435 -57.6434 -57.6429 -57.6428
    -4.1113  -4.1113  -3.0317  -3.0316   1.5322   1.5322   2.8671   2.8671
     3.0043   3.0043   4.4685   4.4685   4.5322   4.5322   5.4655   5.4655

          k = 0.7500 0.0000 0.7500 (  4645 PWs)   bands (ev):

   -96.0533 -96.0532 -96.0358 -96.0246 -57.6527 -57.6525 -57.6509 -57.6508
   -57.6486 -57.6484 -57.6461 -57.6460 -57.6440 -57.6438 -57.6421 -57.6419
    -4.7381  -3.2695  -3.2695  -2.8438   1.3231   1.7483   1.7484   2.9216
     3.8511   3.8514   4.1904   4.3713   4.3714   4.6370   5.3677   6.2457

          k = 0.7500 0.2500 0.0000 (  4645 PWs)   bands (ev):

   -96.0533 -96.0532 -96.0358 -96.0246 -57.6527 -57.6525 -57.6509 -57.6508
   -57.6486 -57.6484 -57.6461 -57.6460 -57.6440 -57.6438 -57.6421 -57.6419
    -4.7381  -3.2695  -3.2695  -2.8438   1.3231   1.7483   1.7484   2.9216
     3.8511   3.8514   4.1904   4.3713   4.3714   4.6370   5.3677   6.2457

          k = 0.7500 0.2500 0.2500 (  4632 PWs)   bands (ev):

   -96.0419 -96.0366 -96.0365 -96.0365 -57.6520 -57.6515 -57.6514 -57.6508
   -57.6476 -57.6472 -57.6469 -57.6467 -57.6429 -57.6427 -57.6426 -57.6417
    -4.5277  -3.2211  -3.2211  -3.2200   1.4429   1.4483   1.4483   3.1851
     3.6908   3.6909   3.6915   4.8228   4.8228   4.8266   5.9393   5.9486

          k = 0.7500 0.2500 0.5000 (  4630 PWs)   bands (ev):

[...]
    -4.2990  -4.2989  -2.7616  -2.7615   1.4318   1.4319   3.1742   3.1742
     3.4852   3.4852   3.5356   3.5356   5.0713   5.0714   5.0943   5.0944

          k = 0.5000 0.0000 0.2500 (  4654 PWs)   bands (ev):

   -96.0449 -96.0447 -96.0440 -96.0439 -57.6528 -57.6527 -57.6523 -57.6523
   -57.6484 -57.6482 -57.6474 -57.6472 -57.6430 -57.6428 -57.6425 -57.6425
    -4.1113  -4.1112  -3.0317  -3.0316   1.5321   1.5321   2.8671   2.8671
     3.0044   3.0044   4.4681   4.4682   4.5323   4.5323   5.4655   5.4655

          k = 0.5000 0.0000 0.5000 (  4636 PWs)   bands (ev):

   -96.0401 -96.0398 -96.0398 -96.0398 -57.6524 -57.6522 -57.6522 -57.6521
   -57.6477 -57.6476 -57.6475 -57.6475 -57.6426 -57.6423 -57.6423 -57.6423
    -3.6124  -3.6123  -3.6123  -3.6122   2.0114   2.0114   2.0114   2.0115
     3.5234   3.5235   3.5235   3.5236   5.5390   5.5390   5.5392   5.5392

          k = 0.5000 0.0000 0.7500 (  4654 PWs)   bands (ev):

   -96.0449 -96.0447 -96.0440 -96.0439 -57.6528 -57.6527 -57.6523 -57.6523
   -57.6484 -57.6482 -57.6474 -57.6472 -57.6430 -57.6428 -57.6425 -57.6425
    -4.1113  -4.1112  -3.0317  -3.0316   1.5321   1.5321   2.8671   2.8671
     3.0044   3.0044   4.4681   4.4682   4.5323   4.5323   5.4655   5.4655

          k = 0.5000 0.2500 0.0000 (  4654 PWs)   bands (ev):

   -96.0449 -96.0447 -96.0440 -96.0439 -57.6528 -57.6527 -57.6523 -57.6523
   -57.6484 -57.6482 -57.6474 -57.6472 -57.6430 -57.6428 -57.6425 -57.6425
    -4.1113  -4.1112  -3.0317  -3.0316   1.5321   1.5321   2.8671   2.8671
     3.0044   3.0044   4.4681   4.4682   4.5323   4.5323   5.4655   5.4655

          k = 0.5000 0.2500 0.2500 (  4630 PWs)   bands (ev):

   -96.0471 -96.0469 -96.0289 -96.0288 -57.6536 -57.6535 -57.6512 -57.6511
   -57.6488 -57.6486 -57.6463 -57.6461 -57.6422 -57.6421 -57.6414 -57.6413
    -3.9493  -3.9492  -3.1713  -3.1712   1.1766   1.1767   2.0679   2.0680
     3.7514   3.7514   4.8911   4.8912   5.1570   5.1570   5.3408   5.3410

          k = 0.5000 0.2500 0.5000 (  4640 PWs)   bands (ev):

   -96.0416 -96.0414 -96.0413 -96.0413 -57.6527 -57.6526 -57.6519 -57.6519
   -57.6482 -57.6481 -57.6480 -57.6479 -57.6428 -57.6427 -57.6421 -57.6420
    -3.5542  -3.5541  -3.5509  -3.5507   1.2534   1.2535   1.2689   1.2690
     4.6288   4.6289   4.6439   4.6440   5.5758   5.5759   5.5790   5.5791

          k = 0.5000 0.2500 0.7500 (  4630 PWs)   bands (ev):

   -96.0471 -96.0469 -96.0289 -96.0288 -57.6520 -57.6519 -57.6512 -57.6511
   -57.6488 -57.6486 -57.6463 -57.6461 -57.6438 -57.6437 -57.6414 -57.6413
    -3.9510  -3.9509  -3.1680  -3.1679   1.1595   1.1596   2.0793   2.0794
     3.7769   3.7771   4.8783   4.8783   5.1727   5.1728   5.3151   5.3152

          k = 0.5000 0.5000 0.0000 (  4636 PWs)   bands (ev):

   -96.0401 -96.0398 -96.0398 -96.0398 -57.6524 -57.6522 -57.6522 -57.6521
   -57.6477 -57.6476 -57.6475 -57.6475 -57.6426 -57.6423 -57.6423 -57.6423
    -3.6124  -3.6123  -3.6123  -3.6122   2.0114   2.0114   2.0114   2.0115
     3.5234   3.5235   3.5235   3.5236   5.5390   5.5390   5.5391   5.5392

          k = 0.5000 0.5000 0.2500 (  4640 PWs)   bands (ev):

   -96.0416 -96.0414 -96.0413 -96.0413 -57.6527 -57.6526 -57.6519 -57.6519
   -57.6482 -57.6481 -57.6480 -57.6479 -57.6428 -57.6427 -57.6421 -57.6420
    -3.5542  -3.5541  -3.5509  -3.5507   1.2534   1.2535   1.2689   1.2690
     4.6288   4.6289   4.6439   4.6440   5.5758   5.5759   5.5790   5.5791

          k = 0.5000 0.5000 0.5000 (  4680 PWs)   bands (ev):

   -96.0544 -96.0542 -96.0542 -96.0542 -57.6543 -57.6542 -57.6532 -57.6531
   -57.6491 -57.6489 -57.6488 -57.6487 -57.6443 -57.6442 -57.6434 -57.6433
    -3.4910  -3.4910  -3.4859  -3.4858   0.7926   0.7927   0.8100   0.8101
     5.6019   5.6021   5.6097   5.6098   5.6260   5.6261   5.6319   5.6320

          k = 0.5000 0.5000 0.7500 (  4640 PWs)   bands (ev):

   -96.0416 -96.0414 -96.0413 -96.0413 -57.6527 -57.6526 -57.6519 -57.6519
   -57.6482 -57.6481 -57.6480 -57.6479 -57.6428 -57.6427 -57.6421 -57.6420
    -3.5542  -3.5541  -3.5509  -3.5507   1.2534   1.2535   1.2689   1.2690
     4.6288   4.6289   4.6439   4.6440   5.5758   5.5759   5.5790   5.5791

          k = 0.5000 0.7500 0.0000 (  4654 PWs)   bands (ev):

   -96.0449 -96.0447 -96.0440 -96.0439 -57.6528 -57.6527 -57.6523 -57.6523
   -57.6484 -57.6482 -57.6474 -57.6472 -57.6430 -57.6428 -57.6425 -57.6425
    -4.1113  -4.1112  -3.0317  -3.0316   1.5321   1.5321   2.8671   2.8671
     3.0044   3.0044   4.4681   4.4682   4.5323   4.5323   5.4655   5.4655

          k = 0.5000 0.7500 0.2500 (  4630 PWs)   bands (ev):

   -96.0471 -96.0469 -96.0289 -96.0288 -57.6520 -57.6519 -57.6512 -57.6511
   -57.6488 -57.6486 -57.6463 -57.6461 -57.6438 -57.6437 -57.6414 -57.6413
    -3.9510  -3.9509  -3.1680  -3.1679   1.1595   1.1596   2.0793   2.0794
     3.7769   3.7771   4.8783   4.8783   5.1727   5.1728   5.3151   5.3152

          k = 0.5000 0.7500 0.5000 (  4640 PWs)   bands (ev):

   -96.0416 -96.0414 -96.0413 -96.0413 -57.6527 -57.6526 -57.6519 -57.6519
   -57.6482 -57.6481 -57.6480 -57.6479 -57.6428 -57.6427 -57.6421 -57.6420
    -3.5542  -3.5541  -3.5509  -3.5507   1.2534   1.2535   1.2689   1.2690
     4.6288   4.6289   4.6439   4.6440   5.5758   5.5759   5.5790   5.5791

          k = 0.5000 0.7500 0.7500 (  4630 PWs)   bands (ev):

   -96.0471 -96.0469 -96.0289 -96.0288 -57.6536 -57.6535 -57.6512 -57.6511
   -57.6488 -57.6486 -57.6463 -57.6461 -57.6422 -57.6421 -57.6414 -57.6413
    -3.9493  -3.9492  -3.1713  -3.1712   1.1766   1.1767   2.0679   2.0680
     3.7514   3.7514   4.8911   4.8912   5.1570   5.1570   5.3408   5.3410

          k = 0.7500 0.0000 0.0000 (  4661 PWs)   bands (ev):

   -96.0579 -96.0428 -96.0426 -96.0417 -57.6534 -57.6527 -57.6526 -57.6514
   -57.6490 -57.6480 -57.6478 -57.6473 -57.6436 -57.6429 -57.6429 -57.6416
    -4.9619  -3.3761  -2.7878  -2.7877   1.2011   1.2011   1.8430   3.7037
     3.7037   3.8510   3.8510   4.4659   4.4855   5.2766   5.8956   5.9254

          k = 0.7500 0.0000 0.2500 (  4645 PWs)   bands (ev):

   -96.0535 -96.0533 -96.0359 -96.0247 -57.6533 -57.6532 -57.6516 -57.6515
   -57.6488 -57.6486 -57.6463 -57.6461 -57.6435 -57.6434 -57.6417 -57.6415
    -4.7381  -3.2696  -3.2695  -2.8438   1.3231   1.7482   1.7484   2.9217
     3.8509   3.8514   4.1904   4.3714   4.3715   4.6371   5.3676   6.2458

          k = 0.7500 0.0000 0.5000 (  4654 PWs)   bands (ev):

   -96.0449 -96.0447 -96.0440 -96.0439 -57.6529 -57.6528 -57.6523 -57.6522
   -57.6481 -57.6480 -57.6475 -57.6474 -57.6431 -57.6429 -57.6425 -57.6424
    -4.1113  -4.1112  -3.0317  -3.0316   1.5322   1.5322   2.8670   2.8670
     3.0043   3.0043   4.4684   4.4685   4.5323   4.5323   5.4656   5.4657

          k = 0.7500 0.0000 0.7500 (  4645 PWs)   bands (ev):

   -96.0535 -96.0533 -96.0359 -96.0247 -57.6533 -57.6532 -57.6516 -57.6515
   -57.6488 -57.6486 -57.6463 -57.6461 -57.6435 -57.6434 -57.6417 -57.6415
    -4.7381  -3.2696  -3.2695  -2.8438   1.3231   1.7482   1.7484   2.9216
     3.8509   3.8514   4.1904   4.3714   4.3715   4.6371   5.3676   6.2458

          k = 0.7500 0.2500 0.0000 (  4645 PWs)   bands (ev):

   -96.0535 -96.0533 -96.0359 -96.0247 -57.6533 -57.6532 -57.6516 -57.6515
   -57.6488 -57.6486 -57.6463 -57.6461 -57.6435 -57.6434 -57.6417 -57.6415
    -4.7381  -3.2696  -3.2695  -2.8438   1.3231   1.7482   1.7484   2.9217
     3.8509   3.8514   4.1904   4.3714   4.3715   4.6371   5.3676   6.2458

          k = 0.7500 0.2500 0.2500 (  4632 PWs)   bands (ev):

   -96.0421 -96.0368 -96.0366 -96.0366 -57.6527 -57.6522 -57.6521 -57.6514
   -57.6478 -57.6473 -57.6470 -57.6469 -57.6424 -57.6423 -57.6422 -57.6412
    -4.5274  -3.2220  -3.2220  -3.2191   1.4399   1.4535   1.4536   3.1805
     3.6857   3.6857   3.6873   4.8233   4.8233   4.8330   5.9352   5.9576

          k = 0.7500 0.2500 0.5000 (  4630 PWs)   bands (ev):

   -96.0471 -96.0469 -96.0289 -96.0288 -57.6534 -57.6530 -57.6512 -57.6509
   -57.6481 -57.6480 -57.6464 -57.6463 -57.6434 -57.6431 -57.6414 -57.6411
    -3.9513  -3.9488  -3.1717  -3.1674   1.1596   1.1766   2.0648   2.0825
     3.7632   3.7652   4.8761   4.8930   5.1539   5.1745   5.3277   5.3303

          k = 0.7500 0.2500 0.7500 (  4632 PWs)   bands (ev):

   -96.0421 -96.0368 -96.0366 -96.0366 -57.6523 -57.6521 -57.6520 -57.6514
   -57.6478 -57.6471 -57.6469 -57.6469 -57.6429 -57.6423 -57.6422 -57.6417
    -4.5286  -3.2219  -3.2190  -3.2189   1.4360   1.4360   1.4498   3.1960
     3.7016   3.7029   3.7030   4.8108   4.8219   4.8219   5.9259   5.9497

          k = 0.7500 0.5000 0.0000 (  4654 PWs)   bands (ev):

   -96.0448 -96.0447 -96.0440 -96.0439 -57.6529 -57.6528 -57.6523 -57.6522
   -57.6481 -57.6480 -57.6475 -57.6474 -57.6431 -57.6429 -57.6425 -57.6424
    -4.1113  -4.1112  -3.0317  -3.0316   1.5322   1.5322   2.8670   2.8670
     3.0043   3.0043   4.4684   4.4685   4.5323   4.5323   5.4656   5.4657

          k = 0.7500 0.5000 0.2500 (  4630 PWs)   bands (ev):

   -96.0471 -96.0469 -96.0289 -96.0288 -57.6534 -57.6530 -57.6512 -57.6509
   -57.6481 -57.6480 -57.6464 -57.6463 -57.6434 -57.6431 -57.6414 -57.6411
    -3.9513  -3.9488  -3.1717  -3.1674   1.1596   1.1766   2.0648   2.0825
     3.7632   3.7652   4.8761   4.8930   5.1539   5.1745   5.3277   5.3303

          k = 0.7500 0.5000 0.5000 (  4640 PWs)   bands (ev):

   -96.0416 -96.0414 -96.0413 -96.0413 -57.6531 -57.6530 -57.6526 -57.6526
   -57.6471 -57.6469 -57.6468 -57.6467 -57.6433 -57.6431 -57.6428 -57.6428
    -3.5549  -3.5548  -3.5502  -3.5501   1.2517   1.2517   1.2706   1.2707
     4.6319   4.6319   4.6416   4.6416   5.5621   5.5623   5.5913   5.5914

          k = 0.7500 0.5000 0.7500 (  4630 PWs)   bands (ev):

   -96.0471 -96.0469 -96.0289 -96.0288 -57.6534 -57.6530 -57.6512 -57.6509
   -57.6481 -57.6480 -57.6464 -57.6463 -57.6434 -57.6431 -57.6414 -57.6411
    -3.9513  -3.9488  -3.1717  -3.1674   1.1596   1.1766   2.0648   2.0825
     3.7632   3.7652   4.8761   4.8930   5.1539   5.1745   5.3277   5.3303

          k = 0.7500 0.7500 0.0000 (  4645 PWs)   bands (ev):

   -96.0535 -96.0533 -96.0359 -96.0247 -57.6533 -57.6532 -57.6516 -57.6515
   -57.6488 -57.6486 -57.6463 -57.6461 -57.6435 -57.6434 -57.6417 -57.6415
    -4.7381  -3.2696  -3.2695  -2.8438   1.3231   1.7482   1.7484   2.9216
     3.8509   3.8514   4.1904   4.3714   4.3715   4.6371   5.3676   6.2458

          k = 0.7500 0.7500 0.2500 (  4632 PWs)   bands (ev):

   -96.0421 -96.0368 -96.0366 -96.0366 -57.6523 -57.6521 -57.6520 -57.6514
   -57.6478 -57.6471 -57.6469 -57.6469 -57.6429 -57.6423 -57.6422 -57.6417
    -4.5286  -3.2219  -3.2190  -3.2189   1.4360   1.4360   1.4498   3.1960
     3.7016   3.7029   3.7030   4.8108   4.8219   4.8219   5.9259   5.9497

          k = 0.7500 0.7500 0.5000 (  4630 PWs)   bands (ev):

   -96.0471 -96.0469 -96.0289 -96.0288 -57.6534 -57.6530 -57.6512 -57.6509
   -57.6481 -57.6480 -57.6464 -57.6463 -57.6434 -57.6431 -57.6414 -57.6411
    -3.9513  -3.9488  -3.1717  -3.1674   1.1596   1.1766   2.0648   2.0825
     3.7632   3.7652   4.8761   4.8930   5.1539   5.1745   5.3277   5.3303

          k = 0.7500 0.7500 0.7500 (  4632 PWs)   bands (ev):

   -96.0421 -96.0368 -96.0366 -96.0366 -57.6527 -57.6522 -57.6521 -57.6514
   -57.6478 -57.6473 -57.6470 -57.6469 -57.6424 -57.6423 -57.6422 -57.6412
    -4.5274  -3.2220  -3.2220  -3.2191   1.4399   1.4535   1.4536   3.1805
     3.6857   3.6857   3.6873   4.8233   4.8233   4.8330   5.9352   5.9576

     highest occupied level (ev):     6.4062

!    total energy              =    -606.74961593 Ry
     estimated scf accuracy    <          4.4E-11 Ry

     The total energy is the sum of the following terms:
     one-electron contribution =    -416.54004399 Ry
     hartree contribution      =     181.02380955 Ry
     xc contribution           =     -76.25715987 Ry
     ewald contribution        =    -294.78649948 Ry

     convergence has been achieved in   5 iterations

     Forces acting on atoms (cartesian axes, Ry/au):

     atom    1 type  1   force =     0.00022186    0.00000538    0.00000547
     atom    2 type  1   force =     0.00021872   -0.00000251   -0.00000077
     atom    3 type  1   force =     0.00021873   -0.00000087   -0.00000261
     atom    4 type  1   force =     0.00021800   -0.00000238   -0.00000247
     atom    5 type  2   force =    -0.00021663    0.00000287    0.00000285
     atom    6 type  2   force =    -0.00021992   -0.00000130   -0.00000049
     atom    7 type  2   force =    -0.00021991   -0.00000046   -0.00000127
     atom    8 type  2   force =    -0.00022086   -0.00000073   -0.00000070
     The non-local contrib.  to forces
     atom    1 type  1   force =    -0.01919730    0.00003763    0.00003746
     atom    2 type  1   force =    -0.01925113   -0.00003040    0.00002696
     atom    3 type  1   force =    -0.01925112    0.00002710   -0.00003026
     atom    4 type  1   force =    -0.01920377   -0.00003010   -0.00002993
     atom    5 type  2   force =    -0.00790102    0.00000677    0.00000695
     atom    6 type  2   force =    -0.00790892   -0.00000214    0.00000079
     atom    7 type  2   force =    -0.00790888    0.00000061   -0.00000231
     atom    8 type  2   force =    -0.00790955   -0.00000108   -0.00000126
     The ionic contribution  to forces
     atom    1 type  1   force =    -0.02265410   -0.00031361   -0.00031144
     atom    2 type  1   force =    -0.02212535    0.00025918   -0.00020802
     atom    3 type  1   force =    -0.02212529   -0.00021042    0.00025673
     atom    4 type  1   force =    -0.02256208    0.00025688    0.00025472
     atom    5 type  2   force =     0.02239826    0.00003140    0.00003136
     atom    6 type  2   force =     0.02239596    0.00002831   -0.00008897
     atom    7 type  2   force =     0.02239613   -0.00008890    0.00002834
     atom    8 type  2   force =     0.02227647    0.00003716    0.00003728
     The local contribution  to forces
     atom    1 type  1   force =     0.02652205    0.00028156    0.00027914
     atom    2 type  1   force =     0.02604457   -0.00023074    0.00017993
     atom    3 type  1   force =     0.02604451    0.00018260   -0.00022801
     atom    4 type  1   force =     0.02643264   -0.00022861   -0.00022620
     atom    5 type  2   force =    -0.02178215   -0.00003343   -0.00003408
     atom    6 type  2   force =    -0.02177954   -0.00002859    0.00008907
     atom    7 type  2   force =    -0.02177973    0.00008969   -0.00002794
     atom    8 type  2   force =    -0.02165605   -0.00003793   -0.00003737
     The core correction contribution to forces
     atom    1 type  1   force =     0.00000000    0.00000000    0.00000000
     atom    2 type  1   force =     0.00000000    0.00000000    0.00000000
     atom    3 type  1   force =     0.00000000    0.00000000    0.00000000
     atom    4 type  1   force =     0.00000000    0.00000000    0.00000000
     atom    5 type  2   force =     0.00000000    0.00000000    0.00000000
     atom    6 type  2   force =     0.00000000    0.00000000    0.00000000
     atom    7 type  2   force =     0.00000000    0.00000000    0.00000000
     atom    8 type  2   force =     0.00000000    0.00000000    0.00000000
     The Hubbard contrib.    to forces
     atom    1 type  1   force =     0.00000000    0.00000000    0.00000000
     atom    2 type  1   force =     0.00000000    0.00000000    0.00000000
     atom    3 type  1   force =     0.00000000    0.00000000    0.00000000
     atom    4 type  1   force =     0.00000000    0.00000000    0.00000000
     atom    5 type  2   force =     0.00000000    0.00000000    0.00000000
     atom    6 type  2   force =     0.00000000    0.00000000    0.00000000
     atom    7 type  2   force =     0.00000000    0.00000000    0.00000000
     atom    8 type  2   force =     0.00000000    0.00000000    0.00000000
     The SCF correction term to forces
     atom    1 type  1   force =    -0.00000454    0.00000016    0.00000068
     atom    2 type  1   force =    -0.00000513   -0.00000019    0.00000073
     atom    3 type  1   force =    -0.00000513    0.00000022   -0.00000070
     atom    4 type  1   force =    -0.00000455   -0.00000018   -0.00000070
     atom    5 type  2   force =    -0.00000221   -0.00000150   -0.00000102
     atom    6 type  2   force =     0.00000209    0.00000148   -0.00000101
     atom    7 type  2   force =     0.00000209   -0.00000148    0.00000101
     atom    8 type  2   force =    -0.00000219    0.00000149    0.00000102

     Total force =     0.000620     Total SCF correction =     0.000011
     Energy error            =      2.7E-05 Ry
     Gradient error          =      2.2E-04 Ry/Bohr

     bfgs converged in   3 scf cycles and   2 bfgs steps
     (criteria: energy <  1.0E-04 Ry, force <  1.0E-03 Ry/Bohr)

     End of BFGS Geometry Optimization

     Final energy             =    -606.7496159275 Ry

     File ../tmp/alp.bfgs deleted, as requested
Begin final coordinates

ATOMIC_POSITIONS (alat)
Al           -0.1243549483       -0.1249958183       -0.1249958420
Al            0.3756387361        0.3749972846       -0.1249986547
Al            0.3756387358       -0.1249986310        0.3749973106
Al           -0.1243574850        0.3749973877        0.3749974103
P             0.1243595916        0.1250008578        0.1250008602
P             0.6243579001        0.6249990123        0.1250008713
P             0.6243578960        0.1250008705        0.6249990103
P             0.1243595736        0.6249990364        0.6249990339
End final coordinates



     Writing all to output data dir ../tmp/alp.save/
 
     init_run     :      0.72s CPU      0.78s WALL (       1 calls)
     electrons    :    356.33s CPU    363.74s WALL (       3 calls)
     update_pot   :      0.02s CPU      0.02s WALL (       2 calls)
     forces       :      0.48s CPU      0.48s WALL (       3 calls)

     Called by init_run:
     wfcinit      :      0.67s CPU      0.70s WALL (       1 calls)
     potinit      :      0.02s CPU      0.03s WALL (       1 calls)
     hinit0       :      0.01s CPU      0.02s WALL (       1 calls)

     Called by electrons:
     c_bands      :    294.31s CPU    301.08s WALL (      63 calls)
     sum_band     :      6.04s CPU      6.11s WALL (      21 calls)
     v_of_rho     :      0.12s CPU      0.13s WALL (      21 calls)
     mix_rho      :      0.02s CPU      0.02s WALL (      21 calls)

     Called by c_bands:
     init_us_2    :      1.13s CPU      1.16s WALL (    5632 calls)
     init_us_2:cp :      1.12s CPU      1.15s WALL (    5632 calls)
     cegterg      :    286.66s CPU    293.30s WALL (    4032 calls)

     Called by *egterg:
     cdiaghg      :      6.47s CPU      6.50s WALL (    9040 calls)
     h_psi        :    271.33s CPU    277.90s WALL (   10192 calls)
     g_psi        :      0.51s CPU      0.51s WALL (    6096 calls)

     Called by h_psi:
     h_psi:calbec :      2.77s CPU      2.80s WALL (   10192 calls)
     vloc_psi     :     72.16s CPU     73.06s WALL (   10192 calls)
     add_vuspsi   :      2.47s CPU      2.49s WALL (   10192 calls)

     General routines
     calbec       :      2.98s CPU      3.02s WALL (   10960 calls)
     fft          :      0.05s CPU      0.06s WALL (     218 calls)
     ffts         :      0.00s CPU      0.00s WALL (      21 calls)
     fftw         :     68.83s CPU     69.69s WALL (  621050 calls)
     davcio       :      0.01s CPU      0.01s WALL (     128 calls)
 
     Parallel routines

     Electric-field routines
     h_epsi_set   :     45.41s CPU     45.86s WALL (      63 calls)
     h_epsi_apply :    193.53s CPU    199.16s WALL (   10128 calls)
     c_phase_fiel :     10.45s CPU     10.56s WALL (      54 calls)
 
     PWSCF        :   5m57.74s CPU   6m 5.37s WALL

 
   This run was terminated on:  18:30:14  21Apr2026            

=------------------------------------------------------------------------------=
   JOB DONE.
=------------------------------------------------------------------------------=
