
     Program PWSCF v.7.2 starts on 21Apr2026 at 18:23:38 

     This program is part of the open-source Quantum ESPRESSO suite
     for quantum simulation of materials; please cite
         "P. Giannozzi et al., J. Phys.:Condens. Matter 21 395502 (2009);
         "P. Giannozzi et al., J. Phys.:Condens. Matter 29 465901 (2017);
         "P. Giannozzi et al., J. Chem. Phys. 152 154105 (2020);
          URL http://www.quantum-espresso.org", 
     in publications or presentations arising from this work. More details at
     http://www.quantum-espresso.org/quote

     Parallel version (MPI & OpenMP), running on       4 processor cores
     Number of MPI processes:                 4
     Threads/MPI process:                     1

     MPI processes distributed on     1 nodes
     57220 MiB available memory on the printing compute node when the environment starts
 
     Waiting for input...
     Reading input from standard input

     Current dimensions of program PWSCF are:
     Max number of different atomic species (ntypx) = 10
     Max number of k-points (npk) =  40000
     Max angular momentum in pseudopotentials (lmaxx) =  4
     Found identity + ( -0.5000 -0.5000  0.0000) symmetry
     This is a supercell, fractional translations are disabled
 
     R & G space division:  proc/nbgrp/npool/nimage =       4
     Subspace diagonalization in iterative solution of the eigenvalue problem:
     a serial algorithm will be used

 
     Parallelization info
     --------------------
     sticks:   dense  smooth     PW     G-vecs:    dense   smooth      PW
     Min         338     338    105                 9298     9298    1653
     Max         339     339    106                 9299     9299    1658
     Sum        1353    1353    421                37193    37193    6619
 
     Using Slab Decomposition
 


     bravais-lattice index     =            1
     lattice parameter (alat)  =      10.2800  a.u.
     unit-cell volume          =    1086.3740 (a.u.)^3
     number of atoms/cell      =            8
     number of atomic types    =            2
     number of electrons       =        64.00
     number of Kohn-Sham states=           32
     kinetic-energy cutoff     =      40.0000  Ry
     charge density cutoff     =     160.0000  Ry
     scf convergence threshold =      1.0E-08
     mixing beta               =       0.5000
     number of iterations used =            8  plain     mixing
     energy convergence thresh.=      1.0E-04
     force convergence thresh. =      1.0E-03
     Exchange-correlation= PBE
                           (   1   4   3   4   0   0   0)
     nstep                     =           50

 
     Using Berry phase electric field
     In a.u.(Ry)  cartesian system of reference
        0.0000000000
        0.0000000000
        0.0000000000
     In a.u.(Ry)  crystal system of reference
        0.0000000000
        0.0000000000
        0.0000000000
     Number of iterative cycles:   1
 

     celldm(1)=  10.280000  celldm(2)=   0.000000  celldm(3)=   0.000000
     celldm(4)=   0.000000  celldm(5)=   0.000000  celldm(6)=   0.000000

     crystal axes: (cart. coord. in units of alat)
               a(1) = (   1.000000   0.000000   0.000000 )  
               a(2) = (   0.000000   1.000000   0.000000 )  
               a(3) = (   0.000000   0.000000   1.000000 )  

     reciprocal axes: (cart. coord. in units 2 pi/alat)
               b(1) = (  1.000000  0.000000  0.000000 )  
               b(2) = (  0.000000  1.000000  0.000000 )  
               b(3) = (  0.000000  0.000000  1.000000 )  


     PseudoPot. # 1 for Al read from file:
     ../../pseudo/Al_ONCV_PBE-1.2.upf
     MD5 check sum: 2d9e7bc02555220d62fad08c3c4858e7
     Pseudo is Norm-conserving, Zval = 11.0
     Generated using ONCVPSP code by D. R. Hamann
     Using radial grid of  602 points,  4 beta functions with: 
                l(1) =   0
                l(2) =   0
                l(3) =   1
                l(4) =   1

     PseudoPot. # 2 for P  read from file:
     ../../pseudo/P_ONCV_PBE-1.2.upf
     MD5 check sum: 0688a67b2b263c6b42d3d97c42745426
     Pseudo is Norm-conserving, Zval =  5.0
     Generated using ONCVPSP code by D. R. Hamann
     Using radial grid of  602 points,  4 beta functions with: 
                l(1) =   0
                l(2) =   0
                l(3) =   1
                l(4) =   1

     atomic species   valence    mass     pseudopotential
        Al            11.00    26.98200     Al( 1.00)
        P              5.00    30.97400     P ( 1.00)

     No symmetry found



   Cartesian axes

     site n.     atom                  positions (alat units)
         1           Al  tau(   1) = (  -0.1250000  -0.1250000  -0.1250000  )
         2           Al  tau(   2) = (   0.3750000   0.3750000  -0.1250000  )
         3           Al  tau(   3) = (   0.3750000  -0.1250000   0.3750000  )
         4           Al  tau(   4) = (  -0.1250000   0.3750000   0.3750000  )
         5           P   tau(   5) = (   0.1250000   0.1250000   0.1250000  )
         6           P   tau(   6) = (   0.6250000   0.6250000   0.1250000  )
         7           P   tau(   7) = (   0.6250000   0.1250000   0.6250000  )
         8           P   tau(   8) = (   0.1250000   0.6250000   0.6250000  )

     number of k points=    64
                       cart. coord. in units 2pi/alat
        k(    1) = (   0.0000000   0.0000000   0.0000000), wk =   0.0312500
        k(    2) = (   0.0000000   0.0000000   0.2500000), wk =   0.0312500
        k(    3) = (   0.0000000   0.0000000   0.5000000), wk =   0.0312500
        k(    4) = (   0.0000000   0.0000000   0.7500000), wk =   0.0312500
        k(    5) = (   0.0000000   0.2500000   0.0000000), wk =   0.0312500
        k(    6) = (   0.0000000   0.2500000   0.2500000), wk =   0.0312500
        k(    7) = (   0.0000000   0.2500000   0.5000000), wk =   0.0312500
        k(    8) = (   0.0000000   0.2500000   0.7500000), wk =   0.0312500
        k(    9) = (   0.0000000   0.5000000   0.0000000), wk =   0.0312500
        k(   10) = (   0.0000000   0.5000000   0.2500000), wk =   0.0312500
        k(   11) = (   0.0000000   0.5000000   0.5000000), wk =   0.0312500
        k(   12) = (   0.0000000   0.5000000   0.7500000), wk =   0.0312500
        k(   13) = (   0.0000000   0.7500000   0.0000000), wk =   0.0312500
        k(   14) = (   0.0000000   0.7500000   0.2500000), wk =   0.0312500
        k(   15) = (   0.0000000   0.7500000   0.5000000), wk =   0.0312500
        k(   16) = (   0.0000000   0.7500000   0.7500000), wk =   0.0312500
        k(   17) = (   0.2500000   0.0000000   0.0000000), wk =   0.0312500
        k(   18) = (   0.2500000   0.0000000   0.2500000), wk =   0.0312500
        k(   19) = (   0.2500000   0.0000000   0.5000000), wk =   0.0312500
        k(   20) = (   0.2500000   0.0000000   0.7500000), wk =   0.0312500
        k(   21) = (   0.2500000   0.2500000   0.0000000), wk =   0.0312500
        k(   22) = (   0.2500000   0.2500000   0.2500000), wk =   0.0312500
        k(   23) = (   0.2500000   0.2500000   0.5000000), wk =   0.0312500
        k(   24) = (   0.2500000   0.2500000   0.7500000), wk =   0.0312500
        k(   25) = (   0.2500000   0.5000000   0.0000000), wk =   0.0312500
        k(   26) = (   0.2500000   0.5000000   0.2500000), wk =   0.0312500
        k(   27) = (   0.2500000   0.5000000   0.5000000), wk =   0.0312500
        k(   28) = (   0.2500000   0.5000000   0.7500000), wk =   0.0312500
        k(   29) = (   0.2500000   0.7500000   0.0000000), wk =   0.0312500
        k(   30) = (   0.2500000   0.7500000   0.2500000), wk =   0.0312500
        k(   31) = (   0.2500000   0.7500000   0.5000000), wk =   0.0312500
        k(   32) = (   0.2500000   0.7500000   0.7500000), wk =   0.0312500
        k(   33) = (   0.5000000   0.0000000   0.0000000), wk =   0.0312500
        k(   34) = (   0.5000000   0.0000000   0.2500000), wk =   0.0312500
        k(   35) = (   0.5000000   0.0000000   0.5000000), wk =   0.0312500
        k(   36) = (   0.5000000   0.0000000   0.7500000), wk =   0.0312500
        k(   37) = (   0.5000000   0.2500000   0.0000000), wk =   0.0312500
        k(   38) = (   0.5000000   0.2500000   0.2500000), wk =   0.0312500
        k(   39) = (   0.5000000   0.2500000   0.5000000), wk =   0.0312500
        k(   40) = (   0.5000000   0.2500000   0.7500000), wk =   0.0312500
        k(   41) = (   0.5000000   0.5000000   0.0000000), wk =   0.0312500
        k(   42) = (   0.5000000   0.5000000   0.2500000), wk =   0.0312500
        k(   43) = (   0.5000000   0.5000000   0.5000000), wk =   0.0312500
        k(   44) = (   0.5000000   0.5000000   0.7500000), wk =   0.0312500
        k(   45) = (   0.5000000   0.7500000   0.0000000), wk =   0.0312500
        k(   46) = (   0.5000000   0.7500000   0.2500000), wk =   0.0312500
        k(   47) = (   0.5000000   0.7500000   0.5000000), wk =   0.0312500
        k(   48) = (   0.5000000   0.7500000   0.7500000), wk =   0.0312500
        k(   49) = (   0.7500000   0.0000000   0.0000000), wk =   0.0312500
        k(   50) = (   0.7500000   0.0000000   0.2500000), wk =   0.0312500
        k(   51) = (   0.7500000   0.0000000   0.5000000), wk =   0.0312500
        k(   52) = (   0.7500000   0.0000000   0.7500000), wk =   0.0312500
        k(   53) = (   0.7500000   0.2500000   0.0000000), wk =   0.0312500
        k(   54) = (   0.7500000   0.2500000   0.2500000), wk =   0.0312500
        k(   55) = (   0.7500000   0.2500000   0.5000000), wk =   0.0312500
        k(   56) = (   0.7500000   0.2500000   0.7500000), wk =   0.0312500
        k(   57) = (   0.7500000   0.5000000   0.0000000), wk =   0.0312500
        k(   58) = (   0.7500000   0.5000000   0.2500000), wk =   0.0312500
        k(   59) = (   0.7500000   0.5000000   0.5000000), wk =   0.0312500
        k(   60) = (   0.7500000   0.5000000   0.7500000), wk =   0.0312500
        k(   61) = (   0.7500000   0.7500000   0.0000000), wk =   0.0312500
        k(   62) = (   0.7500000   0.7500000   0.2500000), wk =   0.0312500
        k(   63) = (   0.7500000   0.7500000   0.5000000), wk =   0.0312500
        k(   64) = (   0.7500000   0.7500000   0.7500000), wk =   0.0312500

     Dense  grid:    37193 G-vectors     FFT dimensions: (  45,  45,  45)

     Estimated max dynamical RAM per process >      46.83 MB

     Estimated total dynamical RAM >     187.33 MB

     Initial potential from superposition of free atoms

     starting charge      63.5843, renormalised to      64.0000
     Starting wfcs are random

     total cpu time spent up to now is        0.8 secs

     Self-consistent Calculation

     iteration #  1     ecut=    40.00 Ry     beta= 0.50
     Davidson diagonalization with overlap
     ethr =  1.00E-02,  avg # of iterations =  8.4

     Threshold (ethr) on eigenvalues was too large:
     Diagonalizing with lowered threshold

     Davidson diagonalization with overlap
     ethr =  7.36E-04,  avg # of iterations =  2.4
 
     Expectation value of exp(iGx): (0.219508158275896,-2.782056123672877E-004)
   1.00000000000000     
     Electronic Dipole per cell (Ry a.u.) -5.865070384468473E-003
     Ionic Dipole per cell (Ry a.u.)   188.995500475540     
 
     Expectation value of exp(iGx): (0.219382065446863,-7.608298445538599E-004)
   1.00000000000000     
     Electronic Dipole per cell (Ry a.u.) -1.604881303743824E-002
     Ionic Dipole per cell (Ry a.u.)   188.995500475540     
 
     Expectation value of exp(iGx): (0.219343726716183,1.080415666371304E-005)
   1.00000000000000     
     Electronic Dipole per cell (Ry a.u.)  2.279417585134849E-004
     Ionic Dipole per cell (Ry a.u.)   188.995500475540     
Electronic Dipole on Cartesian axes
           1 -5.865070384468473E-003
           2 -1.604881303743824E-002
           3  2.279417585134849E-004
Ionic Dipole on Cartesian axes
           1   188.995500475540     
           2   188.995500475540     
           3   188.995500475540     

     total cpu time spent up to now is        8.9 secs

     total energy              =    -606.48189458 Ry
     estimated scf accuracy    <       0.45608707 Ry

     iteration #  2     ecut=    40.00 Ry     beta= 0.50
     Davidson diagonalization with overlap
     ethr =  7.13E-04,  avg # of iterations =  2.0
 
     Expectation value of exp(iGx): (0.198214670822945,1.866091613153152E-005)
   1.00000000000000     
     Electronic Dipole per cell (Ry a.u.)  4.356677411520292E-004
     Ionic Dipole per cell (Ry a.u.)   188.995500475540     
 
     Expectation value of exp(iGx): (0.198185975032026,-3.497454041520333E-004)
   1.00000000000000     
     Electronic Dipole per cell (Ry a.u.) -8.166517323086901E-003
     Ionic Dipole per cell (Ry a.u.)   188.995500475540     
 
     Expectation value of exp(iGx): (0.198158706533479,-2.548015952507270E-004)
   1.00000000000000     
     Electronic Dipole per cell (Ry a.u.) -5.950411280985637E-003
     Ionic Dipole per cell (Ry a.u.)   188.995500475540     
Electronic Dipole on Cartesian axes
           1  4.356677411520292E-004
           2 -8.166517323086901E-003
           3 -5.950411280985637E-003
Ionic Dipole on Cartesian axes
           1   188.995500475540     
           2   188.995500475540     
           3   188.995500475540     

     total cpu time spent up to now is       11.6 secs

     total energy              =    -606.55778377 Ry
     estimated scf accuracy    <       0.03096532 Ry

     iteration #  3     ecut=    40.00 Ry     beta= 0.50
     Davidson diagonalization with overlap
     ethr =  4.84E-05,  avg # of iterations =  2.5
 
     Expectation value of exp(iGx): (0.194919017041612,1.347414807744241E-004)
   1.00000000000000     
     Electronic Dipole per cell (Ry a.u.)  3.198933955604778E-003
     Ionic Dipole per cell (Ry a.u.)   188.995500475540     
 
     Expectation value of exp(iGx): (0.194912531501165,-2.291402643812941E-004)
   1.00000000000000     
     Electronic Dipole per cell (Ry a.u.) -5.440260395325101E-003
     Ionic Dipole per cell (Ry a.u.)   188.995500475540     
 
     Expectation value of exp(iGx): (0.194871791178018,3.643569408706433E-005)
   1.00000000000000     
     Electronic Dipole per cell (Ry a.u.)  8.652394345235086E-004
     Ionic Dipole per cell (Ry a.u.)   188.995500475540     
Electronic Dipole on Cartesian axes
           1  3.198933955604778E-003
           2 -5.440260395325101E-003
           3  8.652394345235086E-004
Ionic Dipole on Cartesian axes
           1   188.995500475540     
           2   188.995500475540     
           3   188.995500475540     

     total cpu time spent up to now is       14.1 secs

     total energy              =    -606.55979016 Ry
     estimated scf accuracy    <       0.00661933 Ry

     iteration #  4     ecut=    40.00 Ry     beta= 0.50
     Davidson diagonalization with overlap
     ethr =  1.03E-05,  avg # of iterations =  2.1
 
     Expectation value of exp(iGx): (0.194907676254552,7.912998558980209E-005)
   1.00000000000000     
     Electronic Dipole per cell (Ry a.u.)  1.878755906048327E-003
     Ionic Dipole per cell (Ry a.u.)   188.995500475540     
 
     Expectation value of exp(iGx): (0.194908242079645,-9.945422062267607E-005)
   1.00000000000000     
     Electronic Dipole per cell (Ry a.u.) -2.361300265640203E-003
     Ionic Dipole per cell (Ry a.u.)   188.995500475540     
 
     Expectation value of exp(iGx): (0.194895804035370,-3.064446640919905E-005)
   1.00000000000000     
     Electronic Dipole per cell (Ry a.u.) -7.276253324642809E-004
     Ionic Dipole per cell (Ry a.u.)   188.995500475540     
Electronic Dipole on Cartesian axes
           1  1.878755906048327E-003
           2 -2.361300265640203E-003
           3 -7.276253324642809E-004
Ionic Dipole on Cartesian axes
           1   188.995500475540     
           2   188.995500475540     
           3   188.995500475540     

     total cpu time spent up to now is       16.7 secs

     total energy              =    -606.56018965 Ry
     estimated scf accuracy    <       0.00008829 Ry

     iteration #  5     ecut=    40.00 Ry     beta= 0.50
     Davidson diagonalization with overlap
     ethr =  1.38E-07,  avg # of iterations =  4.5
 
     Expectation value of exp(iGx): (0.194141233559646,8.701861086599875E-007)
   1.00000000000000     
     Electronic Dipole per cell (Ry a.u.)  2.074209414445411E-005
     Ionic Dipole per cell (Ry a.u.)   188.995500475540     
 
     Expectation value of exp(iGx): (0.194141792192650,8.935412099406528E-007)
   1.00000000000000     
     Electronic Dipole per cell (Ry a.u.)  2.129873412559344E-005
     Ionic Dipole per cell (Ry a.u.)   188.995500475540     
 
     Expectation value of exp(iGx): (0.194140580394938,-2.878511225371059E-007)
   1.00000000000000     
     Electronic Dipole per cell (Ry a.u.) -6.861354268261686E-006
     Ionic Dipole per cell (Ry a.u.)   188.995500475540     
Electronic Dipole on Cartesian axes
           1  2.074209414445411E-005
           2  2.129873412559344E-005
           3 -6.861354268261686E-006
Ionic Dipole on Cartesian axes
           1   188.995500475540     
           2   188.995500475540     
           3   188.995500475540     

     total cpu time spent up to now is       20.0 secs

     total energy              =    -606.56025102 Ry
     estimated scf accuracy    <       0.00000862 Ry

     iteration #  6     ecut=    40.00 Ry     beta= 0.50
     Davidson diagonalization with overlap
     ethr =  1.35E-08,  avg # of iterations =  2.2
 
     Expectation value of exp(iGx): (0.194191755398357,2.475214390881830E-006)
   1.00000000000000     
     Electronic Dipole per cell (Ry a.u.)  5.898482205213448E-005
     Ionic Dipole per cell (Ry a.u.)   188.995500475540     
 
     Expectation value of exp(iGx): (0.194192469598249,-3.152023405299373E-006)
   1.00000000000000     
     Electronic Dipole per cell (Ry a.u.) -7.511303124418637E-005
     Ionic Dipole per cell (Ry a.u.)   188.995500475540     
 
     Expectation value of exp(iGx): (0.194191651417383,2.579044307622408E-006)
   1.00000000000000     
     Electronic Dipole per cell (Ry a.u.)  6.145914130314442E-005
     Ionic Dipole per cell (Ry a.u.)   188.995500475540     
Electronic Dipole on Cartesian axes
           1  5.898482205213448E-005
           2 -7.511303124418637E-005
           3  6.145914130314442E-005
Ionic Dipole on Cartesian axes
           1   188.995500475540     
           2   188.995500475540     
           3   188.995500475540     

     total cpu time spent up to now is       22.7 secs

     total energy              =    -606.56025083 Ry
     estimated scf accuracy    <       0.00000192 Ry

     iteration #  7     ecut=    40.00 Ry     beta= 0.50
     Davidson diagonalization with overlap
     ethr =  3.00E-09,  avg # of iterations =  3.0
 
     Expectation value of exp(iGx): (0.194268505239384,1.457751877179288E-006)
   1.00000000000000     
     Electronic Dipole per cell (Ry a.u.)  3.472477581076750E-005
     Ionic Dipole per cell (Ry a.u.)   188.995500475540     
 
     Expectation value of exp(iGx): (0.194268552624048,-1.472554430564151E-006)
   1.00000000000000     
     Electronic Dipole per cell (Ry a.u.) -3.507737551132692E-005
     Ionic Dipole per cell (Ry a.u.)   188.995500475540     
 
     Expectation value of exp(iGx): (0.194268420259349,4.139022682678010E-007)
   1.00000000000000     
     Electronic Dipole per cell (Ry a.u.)  9.859476077884802E-006
     Ionic Dipole per cell (Ry a.u.)   188.995500475540     
Electronic Dipole on Cartesian axes
           1  3.472477581076750E-005
           2 -3.507737551132692E-005
           3  9.859476077884802E-006
Ionic Dipole on Cartesian axes
           1   188.995500475540     
           2   188.995500475540     
           3   188.995500475540     

     total cpu time spent up to now is       25.5 secs

     total energy              =    -606.56025136 Ry
     estimated scf accuracy    <       0.00000002 Ry

     iteration #  8     ecut=    40.00 Ry     beta= 0.50
     Davidson diagonalization with overlap
     ethr =  2.87E-11,  avg # of iterations =  4.1
 
     Expectation value of exp(iGx): (0.194279933210242,-7.652484218917920E-007)
   1.00000000000000     
     Electronic Dipole per cell (Ry a.u.) -1.822773629679032E-005
     Ionic Dipole per cell (Ry a.u.)   188.995500475540     
 
     Expectation value of exp(iGx): (0.194279916629006,-4.089915151940862E-007)
   1.00000000000000     
     Electronic Dipole per cell (Ry a.u.) -9.741921589914085E-006
     Ionic Dipole per cell (Ry a.u.)   188.995500475540     
 
     Expectation value of exp(iGx): (0.194279894028591,-8.068989046949339E-007)
   1.00000000000000     
     Electronic Dipole per cell (Ry a.u.) -1.921982848763778E-005
     Ionic Dipole per cell (Ry a.u.)   188.995500475540     
Electronic Dipole on Cartesian axes
           1 -1.822773629679032E-005
           2 -9.741921589914085E-006
           3 -1.921982848763778E-005
Ionic Dipole on Cartesian axes
           1   188.995500475540     
           2   188.995500475540     
           3   188.995500475540     

     total cpu time spent up to now is       28.7 secs

     End of self-consistent calculation

          k = 0.0000 0.0000 0.0000 (  4697 PWs)   bands (ev):

   -96.0912 -96.0449 -96.0447 -96.0447 -57.6499 -57.6499 -57.6499 -57.6480
   -57.6480 -57.6480 -57.6478 -57.6478 -57.6478 -57.6476 -57.6476 -57.6476
    -5.1961  -2.8129  -2.8128  -2.8128   1.0327   1.0327   1.0328   4.2582
     4.2582   4.2583   4.2583   4.2583   4.2583   6.3879   6.3879   6.3879

          k = 0.0000 0.0000 0.2500 (  4661 PWs)   bands (ev):

   -96.0576 -96.0424 -96.0423 -96.0414 -57.6486 -57.6483 -57.6483 -57.6476
   -57.6476 -57.6476 -57.6475 -57.6475 -57.6474 -57.6469 -57.6463 -57.6463
    -4.9618  -3.3759  -2.7876  -2.7876   1.2013   1.2013   1.8430   3.7035
     3.7036   3.8508   3.8508   4.4758   4.4758   5.2764   5.9105   5.9105

          k = 0.0000 0.0000 0.5000 (  4636 PWs)   bands (ev):

   -96.0531 -96.0530 -96.0236 -96.0235 -57.6482 -57.6482 -57.6481 -57.6481
   -57.6471 -57.6469 -57.6463 -57.6463 -57.6462 -57.6462 -57.6454 -57.6452
    -4.2988  -4.2988  -2.7614  -2.7613   1.4320   1.4321   3.1742   3.1742
     3.4851   3.4852   3.5355   3.5356   5.0829   5.0829   5.0830   5.0830

          k = 0.0000 0.0000 0.7500 (  4661 PWs)   bands (ev):

   -96.0576 -96.0424 -96.0423 -96.0414 -57.6486 -57.6483 -57.6483 -57.6476
   -57.6476 -57.6476 -57.6475 -57.6475 -57.6474 -57.6469 -57.6463 -57.6463
    -4.9618  -3.3759  -2.7876  -2.7876   1.2013   1.2013   1.8430   3.7035
     3.7036   3.8508   3.8508   4.4758   4.4758   5.2764   5.9105   5.9105

          k = 0.0000 0.2500 0.0000 (  4661 PWs)   bands (ev):

   -96.0576 -96.0424 -96.0423 -96.0414 -57.6486 -57.6483 -57.6483 -57.6476
   -57.6476 -57.6476 -57.6475 -57.6475 -57.6475 -57.6469 -57.6463 -57.6463
    -4.9618  -3.3759  -2.7876  -2.7876   1.2013   1.2013   1.8430   3.7035
     3.7036   3.8508   3.8508   4.4758   4.4758   5.2764   5.9105   5.9105

          k = 0.0000 0.2500 0.2500 (  4645 PWs)   bands (ev):

   -96.0531 -96.0530 -96.0355 -96.0244 -57.6486 -57.6485 -57.6481 -57.6480
   -57.6480 -57.6478 -57.6469 -57.6467 -57.6466 -57.6463 -57.6455 -57.6449
    -4.7380  -3.2694  -3.2693  -2.8436   1.3232   1.7484   1.7484   2.9217
     3.8512   3.8513   4.1905   4.3713   4.3713   4.6365   5.3676   6.2452

          k = 0.0000 0.2500 0.5000 (  4654 PWs)   bands (ev):

   -96.0445 -96.0444 -96.0437 -96.0436 -57.6481 -57.6481 -57.6476 -57.6475
   -57.6475 -57.6474 -57.6472 -57.6472 -57.6472 -57.6472 -57.6469 -57.6468
    -4.1112  -4.1111  -3.0315  -3.0315   1.5323   1.5323   2.8672   2.8672
     3.0044   3.0044   4.4684   4.4684   4.5321   4.5321   5.4652   5.4653

          k = 0.0000 0.2500 0.7500 (  4645 PWs)   bands (ev):

   -96.0531 -96.0530 -96.0355 -96.0244 -57.6486 -57.6485 -57.6481 -57.6480
   -57.6480 -57.6478 -57.6469 -57.6467 -57.6466 -57.6463 -57.6455 -57.6449
    -4.7380  -3.2694  -3.2693  -2.8436   1.3232   1.7484   1.7485   2.9217
     3.8512   3.8513   4.1905   4.3713   4.3713   4.6365   5.3676   6.2452

          k = 0.0000 0.5000 0.0000 (  4636 PWs)   bands (ev):

   -96.0531 -96.0530 -96.0236 -96.0235 -57.6482 -57.6482 -57.6481 -57.6481
   -57.6470 -57.6469 -57.6463 -57.6462 -57.6462 -57.6462 -57.6453 -57.6452
    -4.2988  -4.2988  -2.7614  -2.7613   1.4320   1.4321   3.1742   3.1742
     3.4851   3.4852   3.5355   3.5356   5.0829   5.0829   5.0830   5.0830

          k = 0.0000 0.5000 0.2500 (  4654 PWs)   bands (ev):

   -96.0445 -96.0444 -96.0437 -96.0436 -57.6481 -57.6481 -57.6476 -57.6475
   -57.6475 -57.6474 -57.6472 -57.6472 -57.6472 -57.6472 -57.6469 -57.6468
    -4.1112  -4.1111  -3.0315  -3.0315   1.5323   1.5323   2.8672   2.8672
     3.0044   3.0044   4.4684   4.4684   4.5321   4.5321   5.4652   5.4653

          k = 0.0000 0.5000 0.5000 (  4636 PWs)   bands (ev):

   -96.0397 -96.0395 -96.0395 -96.0395 -57.6477 -57.6476 -57.6476 -57.6475
   -57.6471 -57.6469 -57.6469 -57.6468 -57.6468 -57.6468 -57.6468 -57.6467
    -3.6122  -3.6121  -3.6121  -3.6121   2.0115   2.0115   2.0115   2.0116
     3.5235   3.5236   3.5236   3.5236   5.5386   5.5386   5.5386   5.5387

          k = 0.0000 0.5000 0.7500 (  4654 PWs)   bands (ev):

   -96.0445 -96.0444 -96.0437 -96.0436 -57.6481 -57.6481 -57.6476 -57.6475
   -57.6475 -57.6474 -57.6472 -57.6472 -57.6472 -57.6472 -57.6469 -57.6468
    -4.1112  -4.1111  -3.0315  -3.0315   1.5323   1.5323   2.8672   2.8672
     3.0044   3.0044   4.4684   4.4684   4.5321   4.5321   5.4652   5.4653

          k = 0.0000 0.7500 0.0000 (  4661 PWs)   bands (ev):

   -96.0576 -96.0424 -96.0423 -96.0414 -57.6486 -57.6483 -57.6483 -57.6476
   -57.6476 -57.6476 -57.6475 -57.6475 -57.6475 -57.6469 -57.6463 -57.6463
    -4.9618  -3.3759  -2.7876  -2.7876   1.2013   1.2013   1.8430   3.7035
     3.7036   3.8508   3.8508   4.4758   4.4758   5.2764   5.9105   5.9105

          k = 0.0000 0.7500 0.2500 (  4645 PWs)   bands (ev):

   -96.0531 -96.0530 -96.0355 -96.0244 -57.6486 -57.6485 -57.6481 -57.6480
   -57.6480 -57.6478 -57.6469 -57.6467 -57.6466 -57.6463 -57.6455 -57.6449
    -4.7380  -3.2694  -3.2693  -2.8436   1.3232   1.7484   1.7485   2.9217
     3.8512   3.8513   4.1905   4.3713   4.3713   4.6365   5.3676   6.2452

          k = 0.0000 0.7500 0.5000 (  4654 PWs)   bands (ev):

   -96.0445 -96.0444 -96.0437 -96.0436 -57.6481 -57.6481 -57.6476 -57.6475
   -57.6475 -57.6474 -57.6472 -57.6472 -57.6472 -57.6472 -57.6469 -57.6468
    -4.1112  -4.1111  -3.0315  -3.0315   1.5323   1.5323   2.8672   2.8672
     3.0044   3.0044   4.4684   4.4684   4.5321   4.5321   5.4652   5.4653

          k = 0.0000 0.7500 0.7500 (  4645 PWs)   bands (ev):

   -96.0531 -96.0530 -96.0355 -96.0244 -57.6486 -57.6485 -57.6481 -57.6480
   -57.6480 -57.6478 -57.6469 -57.6467 -57.6466 -57.6463 -57.6455 -57.6449
    -4.7380  -3.2694  -3.2693  -2.8436   1.3232   1.7484   1.7484   2.9217
     3.8512   3.8513   4.1905   4.3713   4.3713   4.6365   5.3676   6.2452

          k = 0.2500 0.0000 0.0000 (  4661 PWs)   bands (ev):

   -96.0576 -96.0424 -96.0423 -96.0414 -57.6486 -57.6483 -57.6483 -57.6476
   -57.6476 -57.6476 -57.6475 -57.6475 -57.6474 -57.6469 -57.6463 -57.6463
    -4.9618  -3.3759  -2.7876  -2.7876   1.2013   1.2013   1.8430   3.7035
     3.7036   3.8508   3.8508   4.4758   4.4758   5.2764   5.9105   5.9105

          k = 0.2500 0.0000 0.2500 (  4645 PWs)   bands (ev):

   -96.0531 -96.0530 -96.0355 -96.0244 -57.6486 -57.6485 -57.6481 -57.6480
   -57.6480 -57.6478 -57.6469 -57.6467 -57.6466 -57.6463 -57.6455 -57.6449
    -4.7380  -3.2694  -3.2693  -2.8436   1.3232   1.7484   1.7484   2.9217
     3.8512   3.8513   4.1905   4.3712   4.3713   4.6365   5.3676   6.2452

          k = 0.2500 0.0000 0.5000 (  4654 PWs)   bands (ev):

   -96.0445 -96.0444 -96.0437 -96.0436 -57.6481 -57.6481 -57.6475 -57.6475
   -57.6475 -57.6473 -57.6472 -57.6472 -57.6472 -57.6472 -57.6469 -57.6468
    -4.1112  -4.1111  -3.0315  -3.0315   1.5323   1.5323   2.8672   2.8672
     3.0044   3.0044   4.4684   4.4684   4.5321   4.5321   5.4652   5.4653

          k = 0.2500 0.0000 0.7500 (  4645 PWs)   bands (ev):

   -96.0531 -96.0530 -96.0355 -96.0244 -57.6486 -57.6485 -57.6481 -57.6480
   -57.6480 -57.6478 -57.6469 -57.6467 -57.6466 -57.6463 -57.6455 -57.6449
    -4.7380  -3.2694  -3.2693  -2.8436   1.3232   1.7484   1.7485   2.9217
     3.8512   3.8513   4.1905   4.3713   4.3713   4.6365   5.3676   6.2452

          k = 0.2500 0.2500 0.0000 (  4645 PWs)   bands (ev):

   -96.0531 -96.0530 -96.0355 -96.0244 -57.6486 -57.6485 -57.6481 -57.6480
   -57.6480 -57.6478 -57.6469 -57.6467 -57.6466 -57.6463 -57.6455 -57.6449
    -4.7380  -3.2694  -3.2693  -2.8436   1.3232   1.7484   1.7485   2.9217
     3.8512   3.8513   4.1905   4.3712   4.3713   4.6365   5.3676   6.2452

          k = 0.2500 0.2500 0.2500 (  4632 PWs)   bands (ev):

   -96.0417 -96.0364 -96.0363 -96.0362 -57.6475 -57.6475 -57.6474 -57.6473
   -57.6473 -57.6469 -57.6468 -57.6468 -57.6463 -57.6463 -57.6462 -57.6453
    -4.5278  -3.2204  -3.2203  -3.2203   1.4449   1.4449   1.4449   3.1883
     3.6944   3.6944   3.6945   4.8220   4.8220   4.8221   5.9417   5.9418

          k = 0.2500 0.2500 0.5000 (  4630 PWs)   bands (ev):

   -96.0467 -96.0466 -96.0286 -96.0284 -57.6486 -57.6486 -57.6482 -57.6481
   -57.6469 -57.6468 -57.6462 -57.6462 -57.6461 -57.6460 -57.6457 -57.6456
    -3.9500  -3.9499  -3.1695  -3.1694   1.1682   1.1682   2.0737   2.0738
     3.7642   3.7643   4.8844   4.8844   5.1646   5.1646   5.3281   5.3281

          k = 0.2500 0.2500 0.7500 (  4632 PWs)   bands (ev):

   -96.0417 -96.0364 -96.0363 -96.0362 -57.6475 -57.6475 -57.6474 -57.6473
   -57.6473 -57.6469 -57.6468 -57.6468 -57.6463 -57.6463 -57.6462 -57.6453
    -4.5278  -3.2204  -3.2203  -3.2203   1.4449   1.4449   1.4449   3.1883
     3.6944   3.6944   3.6944   4.8220   4.8220   4.8221   5.9417   5.9418

          k = 0.2500 0.5000 0.0000 (  4654 PWs)   bands (ev):

   -96.0445 -96.0444 -96.0437 -96.0436 -57.6481 -57.6481 -57.6476 -57.6475
   -57.6475 -57.6474 -57.6472 -57.6472 -57.6472 -57.6472 -57.6469 -57.6468
    -4.1112  -4.1111  -3.0315  -3.0315   1.5323   1.5323   2.8672   2.8672
     3.0044   3.0044   4.4684   4.4684   4.5321   4.5321   5.4652   5.4653

          k = 0.2500 0.5000 0.2500 (  4630 PWs)   bands (ev):

   -96.0467 -96.0466 -96.0285 -96.0284 -57.6486 -57.6486 -57.6482 -57.6481
   -57.6469 -57.6468 -57.6462 -57.6461 -57.6460 -57.6460 -57.6457 -57.6456
    -3.9500  -3.9499  -3.1695  -3.1694   1.1682   1.1682   2.0737   2.0738
     3.7642   3.7643   4.8844   4.8844   5.1646   5.1646   5.3281   5.3281

          k = 0.2500 0.5000 0.5000 (  4640 PWs)   bands (ev):

   -96.0412 -96.0410 -96.0410 -96.0410 -57.6481 -57.6481 -57.6480 -57.6480
   -57.6475 -57.6475 -57.6475 -57.6474 -57.6464 -57.6463 -57.6463 -57.6462
    -3.5524  -3.5523  -3.5523  -3.5523   1.2613   1.2613   1.2613   1.2613
     4.6365   4.6365   4.6365   4.6366   5.5768   5.5768   5.5768   5.5769

          k = 0.2500 0.5000 0.7500 (  4630 PWs)   bands (ev):

   -96.0467 -96.0466 -96.0285 -96.0284 -57.6486 -57.6486 -57.6482 -57.6481
   -57.6469 -57.6468 -57.6462 -57.6461 -57.6461 -57.6460 -57.6457 -57.6456
    -3.9500  -3.9499  -3.1695  -3.1694   1.1682   1.1682   2.0737   2.0738
     3.7642   3.7643   4.8844   4.8844   5.1646   5.1646   5.3281   5.3281

          k = 0.2500 0.7500 0.0000 (  4645 PWs)   bands (ev):

   -96.0531 -96.0530 -96.0355 -96.0244 -57.6486 -57.6485 -57.6481 -57.6480
   -57.6480 -57.6478 -57.6469 -57.6467 -57.6466 -57.6463 -57.6455 -57.6449
    -4.7380  -3.2694  -3.2693  -2.8436   1.3232   1.7484   1.7485   2.9217
     3.8512   3.8513   4.1905   4.3713   4.3713   4.6365   5.3676   6.2452

          k = 0.2500 0.7500 0.2500 (  4632 PWs)   bands (ev):

   -96.0417 -96.0364 -96.0363 -96.0362 -57.6475 -57.6475 -57.6474 -57.6473
   -57.6473 -57.6469 -57.6468 -57.6468 -57.6463 -57.6463 -57.6462 -57.6453
    -4.5278  -3.2204  -3.2203  -3.2203   1.4449   1.4449   1.4449   3.1883
     3.6944   3.6944   3.6944   4.8220   4.8220   4.8221   5.9418   5.9418

          k = 0.2500 0.7500 0.5000 (  4630 PWs)   bands (ev):

   -96.0467 -96.0466 -96.0286 -96.0284 -57.6486 -57.6486 -57.6482 -57.6481
   -57.6469 -57.6468 -57.6462 -57.6462 -57.6461 -57.6460 -57.6457 -57.6456
    -3.9500  -3.9499  -3.1695  -3.1694   1.1682   1.1682   2.0737   2.0738
     3.7642   3.7643   4.8844   4.8844   5.1646   5.1646   5.3281   5.3281

          k = 0.2500 0.7500 0.7500 (  4632 PWs)   bands (ev):

   -96.0417 -96.0364 -96.0363 -96.0362 -57.6475 -57.6475 -57.6474 -57.6473
   -57.6473 -57.6469 -57.6468 -57.6468 -57.6463 -57.6463 -57.6462 -57.6453
    -4.5278  -3.2204  -3.2203  -3.2203   1.4449   1.4449   1.4450   3.1883
     3.6944   3.6944   3.6944   4.8220   4.8220   4.8220   5.9417   5.9418

          k = 0.5000 0.0000 0.0000 (  4636 PWs)   bands (ev):

   -96.0531 -96.0530 -96.0236 -96.0235 -57.6482 -57.6482 -57.6481 -57.6481
   -57.6470 -57.6469 -57.6463 -57.6463 -57.6462 -57.6462 -57.6454 -57.6452
    -4.2988  -4.2988  -2.7614  -2.7613   1.4320   1.4321   3.1742   3.1742
     3.4852   3.4852   3.5356   3.5356   5.0829   5.0829   5.0830   5.0830

          k = 0.5000 0.0000 0.2500 (  4654 PWs)   bands (ev):

   -96.0445 -96.0444 -96.0437 -96.0436 -57.6481 -57.6481 -57.6475 -57.6475
   -57.6475 -57.6473 -57.6472 -57.6472 -57.6472 -57.6472 -57.6469 -57.6468
    -4.1112  -4.1111  -3.0315  -3.0315   1.5323   1.5323   2.8672   2.8672
     3.0044   3.0044   4.4684   4.4684   4.5321   4.5321   5.4652   5.4653

          k = 0.5000 0.0000 0.5000 (  4636 PWs)   bands (ev):

   -96.0397 -96.0395 -96.0395 -96.0395 -57.6476 -57.6476 -57.6476 -57.6475
   -57.6471 -57.6469 -57.6469 -57.6468 -57.6468 -57.6468 -57.6468 -57.6467
    -3.6122  -3.6121  -3.6121  -3.6121   2.0115   2.0115   2.0116   2.0116
     3.5235   3.5236   3.5236   3.5236   5.5386   5.5386   5.5386   5.5387

          k = 0.5000 0.0000 0.7500 (  4654 PWs)   bands (ev):

   -96.0445 -96.0444 -96.0437 -96.0436 -57.6481 -57.6481 -57.6475 -57.6475
   -57.6475 -57.6473 -57.6472 -57.6472 -57.6472 -57.6472 -57.6469 -57.6468
    -4.1112  -4.1111  -3.0315  -3.0315   1.5323   1.5323   2.8672   2.8672
     3.0044   3.0044   4.4684   4.4684   4.5321   4.5321   5.4652   5.4653

          k = 0.5000 0.2500 0.0000 (  4654 PWs)   bands (ev):

   -96.0445 -96.0444 -96.0437 -96.0436 -57.6481 -57.6481 -57.6476 -57.6475
   -57.6475 -57.6474 -57.6472 -57.6472 -57.6472 -57.6472 -57.6469 -57.6468
    -4.1112  -4.1111  -3.0315  -3.0315   1.5323   1.5323   2.8672   2.8672
     3.0044   3.0044   4.4684   4.4684   4.5321   4.5321   5.4652   5.4653

          k = 0.5000 0.2500 0.2500 (  4630 PWs)   bands (ev):

   -96.0467 -96.0466 -96.0286 -96.0284 -57.6486 -57.6486 -57.6482 -57.6481
   -57.6469 -57.6468 -57.6462 -57.6462 -57.6461 -57.6460 -57.6457 -57.6456
    -3.9500  -3.9499  -3.1695  -3.1694   1.1682   1.1682   2.0737   2.0738
     3.7643   3.7643   4.8844   4.8844   5.1646   5.1646   5.3281   5.3281

          k = 0.5000 0.2500 0.5000 (  4640 PWs)   bands (ev):

   -96.0412 -96.0410 -96.0410 -96.0410 -57.6481 -57.6481 -57.6480 -57.6480
   -57.6475 -57.6475 -57.6475 -57.6474 -57.6464 -57.6463 -57.6463 -57.6463
    -3.5524  -3.5523  -3.5523  -3.5523   1.2613   1.2613   1.2613   1.2613
     4.6365   4.6365   4.6365   4.6365   5.5768   5.5768   5.5768   5.5769

          k = 0.5000 0.2500 0.7500 (  4630 PWs)   bands (ev):

   -96.0467 -96.0466 -96.0286 -96.0284 -57.6486 -57.6486 -57.6482 -57.6481
   -57.6469 -57.6468 -57.6462 -57.6462 -57.6461 -57.6460 -57.6457 -57.6456
    -3.9500  -3.9499  -3.1695  -3.1694   1.1682   1.1682   2.0737   2.0738
     3.7642   3.7643   4.8844   4.8844   5.1646   5.1646   5.3281   5.3282

          k = 0.5000 0.5000 0.0000 (  4636 PWs)   bands (ev):

   -96.0397 -96.0395 -96.0395 -96.0395 -57.6477 -57.6477 -57.6476 -57.6475
   -57.6471 -57.6469 -57.6468 -57.6468 -57.6468 -57.6468 -57.6468 -57.6467
    -3.6122  -3.6121  -3.6121  -3.6121   2.0115   2.0115   2.0116   2.0116
     3.5235   3.5236   3.5236   3.5236   5.5386   5.5386   5.5386   5.5387

          k = 0.5000 0.5000 0.2500 (  4640 PWs)   bands (ev):

   -96.0412 -96.0410 -96.0410 -96.0410 -57.6481 -57.6481 -57.6480 -57.6480
   -57.6475 -57.6475 -57.6475 -57.6474 -57.6464 -57.6463 -57.6463 -57.6462
    -3.5524  -3.5523  -3.5523  -3.5523   1.2613   1.2613   1.2613   1.2613
     4.6365   4.6365   4.6365   4.6365   5.5768   5.5768   5.5768   5.5769

          k = 0.5000 0.5000 0.5000 (  4680 PWs)   bands (ev):

   -96.0541 -96.0539 -96.0539 -96.0538 -57.6495 -57.6495 -57.6495 -57.6495
   -57.6481 -57.6480 -57.6480 -57.6480 -57.6480 -57.6479 -57.6479 -57.6479
    -3.4884  -3.4883  -3.4883  -3.4882   0.8014   0.8014   0.8015   0.8015
     5.6170   5.6170   5.6170   5.6170   5.6170   5.6170   5.6171   5.6171

          k = 0.5000 0.5000 0.7500 (  4640 PWs)   bands (ev):

   -96.0412 -96.0410 -96.0410 -96.0410 -57.6481 -57.6481 -57.6480 -57.6480
   -57.6475 -57.6475 -57.6475 -57.6474 -57.6464 -57.6463 -57.6463 -57.6462
    -3.5524  -3.5523  -3.5523  -3.5523   1.2613   1.2613   1.2613   1.2613
     4.6365   4.6365   4.6365   4.6365   5.5768   5.5768   5.5768   5.5769

          k = 0.5000 0.7500 0.0000 (  4654 PWs)   bands (ev):

   -96.0445 -96.0444 -96.0437 -96.0436 -57.6481 -57.6481 -57.6476 -57.6475
   -57.6475 -57.6474 -57.6472 -57.6472 -57.6472 -57.6472 -57.6469 -57.6468
    -4.1112  -4.1111  -3.0315  -3.0315   1.5323   1.5323   2.8672   2.8672
     3.0044   3.0044   4.4684   4.4684   4.5321   4.5321   5.4652   5.4653

          k = 0.5000 0.7500 0.2500 (  4630 PWs)   bands (ev):

   -96.0467 -96.0466 -96.0286 -96.0284 -57.6486 -57.6486 -57.6482 -57.6481
   -57.6469 -57.6468 -57.6462 -57.6462 -57.6461 -57.6460 -57.6457 -57.6456
    -3.9500  -3.9499  -3.1695  -3.1694   1.1682   1.1682   2.0737   2.0738
     3.7642   3.7643   4.8844   4.8844   5.1646   5.1646   5.3281   5.3282

          k = 0.5000 0.7500 0.5000 (  4640 PWs)   bands (ev):

   -96.0412 -96.0410 -96.0410 -96.0410 -57.6481 -57.6481 -57.6480 -57.6480
   -57.6475 -57.6475 -57.6475 -57.6474 -57.6464 -57.6463 -57.6463 -57.6463
    -3.5524  -3.5523  -3.5523  -3.5523   1.2613   1.2613   1.2613   1.2613
     4.6365   4.6365   4.6365   4.6365   5.5768   5.5768   5.5768   5.5769

          k = 0.5000 0.7500 0.7500 (  4630 PWs)   bands (ev):

   -96.0467 -96.0466 -96.0286 -96.0284 -57.6486 -57.6486 -57.6482 -57.6481
   -57.6469 -57.6468 -57.6462 -57.6462 -57.6461 -57.6460 -57.6457 -57.6456
    -3.9500  -3.9499  -3.1695  -3.1694   1.1682   1.1682   2.0737   2.0738
     3.7643   3.7643   4.8844   4.8844   5.1646   5.1646   5.3281   5.3281

          k = 0.7500 0.0000 0.0000 (  4661 PWs)   bands (ev):

   -96.0576 -96.0424 -96.0423 -96.0414 -57.6486 -57.6483 -57.6483 -57.6476
   -57.6476 -57.6476 -57.6475 -57.6475 -57.6474 -57.6469 -57.6463 -57.6463
    -4.9618  -3.3759  -2.7876  -2.7876   1.2013   1.2013   1.8430   3.7035
     3.7036   3.8508   3.8508   4.4758   4.4758   5.2764   5.9105   5.9105

          k = 0.7500 0.0000 0.2500 (  4645 PWs)   bands (ev):

   -96.0531 -96.0530 -96.0355 -96.0244 -57.6486 -57.6485 -57.6481 -57.6480
   -57.6480 -57.6478 -57.6469 -57.6467 -57.6466 -57.6463 -57.6455 -57.6449
    -4.7380  -3.2694  -3.2693  -2.8436   1.3232   1.7484   1.7485   2.9217
     3.8512   3.8513   4.1905   4.3713   4.3713   4.6365   5.3676   6.2452

          k = 0.7500 0.0000 0.5000 (  4654 PWs)   bands (ev):

   -96.0445 -96.0444 -96.0437 -96.0436 -57.6481 -57.6481 -57.6475 -57.6475
   -57.6475 -57.6473 -57.6472 -57.6472 -57.6472 -57.6472 -57.6469 -57.6468
    -4.1112  -4.1111  -3.0315  -3.0315   1.5323   1.5323   2.8672   2.8672
     3.0044   3.0044   4.4684   4.4684   4.5321   4.5321   5.4652   5.4653

          k = 0.7500 0.0000 0.7500 (  4645 PWs)   bands (ev):

   -96.0531 -96.0530 -96.0355 -96.0244 -57.6486 -57.6485 -57.6481 -57.6480
   -57.6480 -57.6478 -57.6469 -57.6467 -57.6466 -57.6463 -57.6455 -57.6449
    -4.7380  -3.2694  -3.2693  -2.8436   1.3232   1.7484   1.7484   2.9217
     3.8512   3.8513   4.1905   4.3712   4.3713   4.6365   5.3676   6.2452

          k = 0.7500 0.2500 0.0000 (  4645 PWs)   bands (ev):

   -96.0531 -96.0530 -96.0355 -96.0244 -57.6486 -57.6485 -57.6481 -57.6480
   -57.6480 -57.6478 -57.6469 -57.6467 -57.6466 -57.6463 -57.6455 -57.6449
    -4.7380  -3.2694  -3.2693  -2.8436   1.3232   1.7484   1.7485   2.9217
     3.8512   3.8513   4.1905   4.3713   4.3713   4.6365   5.3676   6.2452

          k = 0.7500 0.2500 0.2500 (  4632 PWs)   bands (ev):

   -96.0417 -96.0364 -96.0363 -96.0362 -57.6475 -57.6475 -57.6474 -57.6473
   -57.6473 -57.6469 -57.6468 -57.6468 -57.6463 -57.6463 -57.6462 -57.6453
    -4.5278  -3.2204  -3.2203  -3.2203   1.4449   1.4449   1.4450   3.1883
     3.6944   3.6944   3.6944   4.8220   4.8220   4.8220   5.9417   5.9418

          k = 0.7500 0.2500 0.5000 (  4630 PWs)   bands (ev):

   -96.0467 -96.0466 -96.0286 -96.0284 -57.6486 -57.6486 -57.6482 -57.6481
   -57.6469 -57.6468 -57.6462 -57.6462 -57.6461 -57.6460 -57.6457 -57.6456
    -3.9500  -3.9499  -3.1695  -3.1694   1.1682   1.1682   2.0737   2.0738
     3.7642   3.7643   4.8844   4.8844   5.1646   5.1646   5.3281   5.3281

          k = 0.7500 0.2500 0.7500 (  4632 PWs)   bands (ev):

   -96.0417 -96.0364 -96.0363 -96.0362 -57.6475 -57.6475 -57.6474 -57.6473
   -57.6473 -57.6469 -57.6468 -57.6468 -57.6463 -57.6463 -57.6462 -57.6453
    -4.5278  -3.2204  -3.2203  -3.2203   1.4449   1.4449   1.4449   3.1883
     3.6944   3.6944   3.6944   4.8220   4.8220   4.8221   5.9418   5.9418

          k = 0.7500 0.5000 0.0000 (  4654 PWs)   bands (ev):

   -96.0445 -96.0444 -96.0437 -96.0436 -57.6481 -57.6481 -57.6476 -57.6475
   -57.6475 -57.6474 -57.6472 -57.6472 -57.6472 -57.6472 -57.6469 -57.6468
    -4.1112  -4.1111  -3.0315  -3.0315   1.5323   1.5323   2.8672   2.8672
     3.0044   3.0044   4.4684   4.4684   4.5321   4.5321   5.4652   5.4653

          k = 0.7500 0.5000 0.2500 (  4630 PWs)   bands (ev):

   -96.0467 -96.0466 -96.0285 -96.0284 -57.6486 -57.6486 -57.6482 -57.6481
   -57.6469 -57.6468 -57.6462 -57.6461 -57.6461 -57.6460 -57.6457 -57.6456
    -3.9500  -3.9499  -3.1695  -3.1694   1.1682   1.1682   2.0737   2.0738
     3.7642   3.7643   4.8844   4.8844   5.1646   5.1646   5.3281   5.3281

          k = 0.7500 0.5000 0.5000 (  4640 PWs)   bands (ev):

   -96.0412 -96.0410 -96.0410 -96.0410 -57.6481 -57.6481 -57.6480 -57.6480
   -57.6475 -57.6475 -57.6475 -57.6474 -57.6464 -57.6463 -57.6463 -57.6462
    -3.5524  -3.5523  -3.5523  -3.5523   1.2613   1.2613   1.2613   1.2613
     4.6365   4.6365   4.6365   4.6366   5.5768   5.5768   5.5768   5.5769

          k = 0.7500 0.5000 0.7500 (  4630 PWs)   bands (ev):

   -96.0467 -96.0466 -96.0285 -96.0284 -57.6486 -57.6486 -57.6482 -57.6481
   -57.6469 -57.6468 -57.6462 -57.6461 -57.6460 -57.6460 -57.6457 -57.6456
    -3.9500  -3.9499  -3.1695  -3.1694   1.1682   1.1682   2.0737   2.0738
     3.7642   3.7643   4.8844   4.8844   5.1646   5.1646   5.3281   5.3281

          k = 0.7500 0.7500 0.0000 (  4645 PWs)   bands (ev):

   -96.0531 -96.0530 -96.0355 -96.0244 -57.6486 -57.6485 -57.6481 -57.6480
   -57.6480 -57.6478 -57.6469 -57.6467 -57.6466 -57.6463 -57.6455 -57.6449
    -4.7380  -3.2694  -3.2693  -2.8436   1.3232   1.7484   1.7485   2.9217
     3.8512   3.8513   4.1905   4.3712   4.3713   4.6365   5.3676   6.2452

          k = 0.7500 0.7500 0.2500 (  4632 PWs)   bands (ev):

   -96.0417 -96.0364 -96.0363 -96.0362 -57.6475 -57.6475 -57.6474 -57.6473
   -57.6473 -57.6469 -57.6468 -57.6468 -57.6463 -57.6463 -57.6462 -57.6453
    -4.5278  -3.2204  -3.2203  -3.2203   1.4449   1.4449   1.4449   3.1883
     3.6944   3.6944   3.6944   4.8220   4.8220   4.8221   5.9417   5.9418

          k = 0.7500 0.7500 0.5000 (  4630 PWs)   bands (ev):

   -96.0467 -96.0466 -96.0286 -96.0284 -57.6486 -57.6486 -57.6482 -57.6481
   -57.6469 -57.6468 -57.6462 -57.6462 -57.6461 -57.6460 -57.6457 -57.6456
    -3.9500  -3.9499  -3.1695  -3.1694   1.1682   1.1682   2.0737   2.0738
     3.7642   3.7643   4.8844   4.8844   5.1646   5.1646   5.3281   5.3281

          k = 0.7500 0.7500 0.7500 (  4632 PWs)   bands (ev):

   -96.0417 -96.0364 -96.0363 -96.0362 -57.6475 -57.6475 -57.6474 -57.6473
   -57.6473 -57.6469 -57.6468 -57.6468 -57.6463 -57.6463 -57.6462 -57.6453
    -4.5278  -3.2204  -3.2203  -3.2203   1.4449   1.4449   1.4449   3.1883
     3.6944   3.6944   3.6945   4.8220   4.8220   4.8221   5.9417   5.9418

     highest occupied level (ev):     6.3879

!    total energy              =    -606.56025137 Ry
     estimated scf accuracy    <          3.8E-09 Ry

     The total energy is the sum of the following terms:
     one-electron contribution =    -416.53958218 Ry
     hartree contribution      =     181.02367561 Ry
     xc contribution           =     -76.25725549 Ry
     ewald contribution        =    -294.78708931 Ry

     convergence has been achieved in   8 iterations

     Forces acting on atoms (cartesian axes, Ry/au):

     atom    1 type  1   force =     0.00001735    0.00001887    0.00002046
     atom    2 type  1   force =    -0.00000964   -0.00001320    0.00000918
     atom    3 type  1   force =    -0.00001295    0.00001082   -0.00001583
     atom    4 type  1   force =     0.00000793   -0.00001252   -0.00001359
     atom    5 type  2   force =     0.00000211    0.00000272    0.00000257
     atom    6 type  2   force =    -0.00000454   -0.00000542    0.00000477
     atom    7 type  2   force =    -0.00000445    0.00000403   -0.00000388
     atom    8 type  2   force =     0.00000419   -0.00000529   -0.00000369
     The non-local contrib.  to forces
     atom    1 type  1   force =     0.00004638    0.00003659    0.00003406
     atom    2 type  1   force =    -0.00003342   -0.00002088    0.00001578
     atom    3 type  1   force =    -0.00003213    0.00001314   -0.00001946
     atom    4 type  1   force =     0.00002506   -0.00002102   -0.00002235
     atom    5 type  2   force =     0.00001144    0.00000534    0.00001148
     atom    6 type  2   force =    -0.00001080   -0.00000511    0.00000973
     atom    7 type  2   force =    -0.00001117    0.00001139   -0.00001008
     atom    8 type  2   force =     0.00000898   -0.00000515   -0.00001141
     The ionic contribution  to forces
     atom    1 type  1   force =     0.00000000   -0.00000000   -0.00000000
     atom    2 type  1   force =     0.00000000   -0.00000000   -0.00000000
     atom    3 type  1   force =     0.00000000   -0.00000000   -0.00000000
     atom    4 type  1   force =    -0.00000000   -0.00000000   -0.00000000
     atom    5 type  2   force =     0.00000000    0.00000000   -0.00000000
     atom    6 type  2   force =     0.00000000    0.00000000    0.00000000
     atom    7 type  2   force =     0.00000000    0.00000000    0.00000000
     atom    8 type  2   force =     0.00000000    0.00000000    0.00000000
     The local contribution  to forces
     atom    1 type  1   force =     0.00000131   -0.00003357   -0.00004108
     atom    2 type  1   force =    -0.00001381    0.00003152   -0.00002639
     atom    3 type  1   force =    -0.00000117   -0.00003535    0.00003883
     atom    4 type  1   force =     0.00000733    0.00003165    0.00002451
     atom    5 type  2   force =    -0.00001187    0.00000497   -0.00001398
     atom    6 type  2   force =     0.00001030   -0.00000478   -0.00000530
     atom    7 type  2   force =     0.00001079   -0.00000389    0.00001035
     atom    8 type  2   force =    -0.00000318   -0.00000379    0.00001282
     The core correction contribution to forces
     atom    1 type  1   force =     0.00000000    0.00000000    0.00000000
     atom    2 type  1   force =     0.00000000    0.00000000    0.00000000
     atom    3 type  1   force =     0.00000000    0.00000000    0.00000000
     atom    4 type  1   force =     0.00000000    0.00000000    0.00000000
     atom    5 type  2   force =     0.00000000    0.00000000    0.00000000
     atom    6 type  2   force =     0.00000000    0.00000000    0.00000000
     atom    7 type  2   force =     0.00000000    0.00000000    0.00000000
     atom    8 type  2   force =     0.00000000    0.00000000    0.00000000
     The Hubbard contrib.    to forces
     atom    1 type  1   force =     0.00000000    0.00000000    0.00000000
     atom    2 type  1   force =     0.00000000    0.00000000    0.00000000
     atom    3 type  1   force =     0.00000000    0.00000000    0.00000000
     atom    4 type  1   force =     0.00000000    0.00000000    0.00000000
     atom    5 type  2   force =     0.00000000    0.00000000    0.00000000
     atom    6 type  2   force =     0.00000000    0.00000000    0.00000000
     atom    7 type  2   force =     0.00000000    0.00000000    0.00000000
     atom    8 type  2   force =     0.00000000    0.00000000    0.00000000
     The SCF correction term to forces
     atom    1 type  1   force =    -0.00002938    0.00001708    0.00002782
     atom    2 type  1   force =     0.00003855   -0.00002261    0.00002013
     atom    3 type  1   force =     0.00002131    0.00003426   -0.00003486
     atom    4 type  1   force =    -0.00002350   -0.00002192   -0.00001540
     atom    5 type  2   force =     0.00000350   -0.00000636    0.00000541
     atom    6 type  2   force =    -0.00000308    0.00000570    0.00000068
     atom    7 type  2   force =    -0.00000312   -0.00000225   -0.00000380
     atom    8 type  2   force =    -0.00000064    0.00000488   -0.00000475

     Total force =     0.000051     Total SCF correction =     0.000093
     SCF correction compared to forces is large: reduce conv_thr to get better values

     BFGS Geometry Optimization
     Energy error            =      0.0E+00 Ry
     Gradient error          =      2.0E-05 Ry/Bohr

     bfgs converged in   1 scf cycles and   0 bfgs steps
     (criteria: energy <  1.0E-04 Ry, force <  1.0E-03 Ry/Bohr)

     End of BFGS Geometry Optimization

     Final energy             =    -606.5602513724 Ry
Begin final coordinates

ATOMIC_POSITIONS (alat)
Al           -0.1250000000       -0.1250000000       -0.1250000000
Al            0.3750000000        0.3750000000       -0.1250000000
Al            0.3750000000       -0.1250000000        0.3750000000
Al           -0.1250000000        0.3750000000        0.3750000000
P             0.1250000000        0.1250000000        0.1250000000
P             0.6250000000        0.6250000000        0.1250000000
P             0.6250000000        0.1250000000        0.6250000000
P             0.1250000000        0.6250000000        0.6250000000
End final coordinates



     Writing all to output data dir ../tmp/alp.save/
 
     init_run     :      0.70s CPU      0.73s WALL (       1 calls)
     electrons    :     27.58s CPU     27.92s WALL (       1 calls)
     forces       :      0.16s CPU      0.16s WALL (       1 calls)

     Called by init_run:
     wfcinit      :      0.67s CPU      0.69s WALL (       1 calls)
     potinit      :      0.01s CPU      0.01s WALL (       1 calls)
     hinit0       :      0.00s CPU      0.01s WALL (       1 calls)

     Called by electrons:
     c_bands      :     20.35s CPU     20.59s WALL (       9 calls)
     sum_band     :      2.57s CPU      2.60s WALL (       9 calls)
     v_of_rho     :      0.05s CPU      0.05s WALL (       9 calls)
     mix_rho      :      0.01s CPU      0.01s WALL (       9 calls)

     Called by c_bands:
     init_us_2    :      0.25s CPU      0.26s WALL (    1280 calls)
     init_us_2:cp :      0.24s CPU      0.26s WALL (    1280 calls)
     cegterg      :     19.31s CPU     19.52s WALL (     576 calls)

     Called by *egterg:
     cdiaghg      :      1.84s CPU      1.85s WALL (    2505 calls)
     h_psi        :     15.64s CPU     15.83s WALL (    2633 calls)
     g_psi        :      0.12s CPU      0.12s WALL (    1993 calls)

     Called by h_psi:
     h_psi:calbec :      0.59s CPU      0.59s WALL (    2633 calls)
     vloc_psi     :     14.46s CPU     14.64s WALL (    2633 calls)
     add_vuspsi   :      0.51s CPU      0.52s WALL (    2633 calls)

     General routines
     calbec       :      0.66s CPU      0.66s WALL (    2889 calls)
     fft          :      0.02s CPU      0.02s WALL (      92 calls)
     ffts         :      0.00s CPU      0.00s WALL (       9 calls)
     fftw         :     14.87s CPU     15.05s WALL (  135154 calls)
 
     Parallel routines

     Electric-field routines
     c_phase_fiel :      4.60s CPU      4.66s WALL (      24 calls)
 
     PWSCF        :     28.61s CPU     29.18s WALL

 
   This run was terminated on:  18:24: 8  21Apr2026            

=------------------------------------------------------------------------------=
   JOB DONE.
=------------------------------------------------------------------------------=
