
     Program PWSCF v.7.2 starts on 15Apr2026 at 19:27:20 

     This program is part of the open-source Quantum ESPRESSO suite
     for quantum simulation of materials; please cite
         "P. Giannozzi et al., J. Phys.:Condens. Matter 21 395502 (2009);
         "P. Giannozzi et al., J. Phys.:Condens. Matter 29 465901 (2017);
         "P. Giannozzi et al., J. Chem. Phys. 152 154105 (2020);
          URL http://www.quantum-espresso.org", 
     in publications or presentations arising from this work. More details at
     http://www.quantum-espresso.org/quote

     Parallel version (MPI & OpenMP), running on       4 processor cores
     Number of MPI processes:                 4
     Threads/MPI process:                     1

     MPI processes distributed on     1 nodes
     4463 MiB available memory on the printing compute node when the environment starts
 
     Waiting for input...
     Reading input from standard input

     Current dimensions of program PWSCF are:
     Max number of different atomic species (ntypx) = 10
     Max number of k-points (npk) =  40000
     Max angular momentum in pseudopotentials (lmaxx) =  4
     Found identity + ( -0.5000 -0.5000  0.0000) symmetry
     This is a supercell, fractional translations are disabled
 
     R & G space division:  proc/nbgrp/npool/nimage =       4
     Subspace diagonalization in iterative solution of the eigenvalue problem:
     a serial algorithm will be used

 
     Parallelization info
     --------------------
     sticks:   dense  smooth     PW     G-vecs:    dense   smooth      PW
     Min         221     221     73                 5001     5001     971
     Max         222     222     74                 5002     5002     974
     Sum         885     885    293                20005    20005    3887
 
     Using Slab Decomposition
 


     bravais-lattice index     =            1
     lattice parameter (alat)  =      10.5800  a.u.
     unit-cell volume          =    1184.2871 (a.u.)^3
     number of atoms/cell      =            8
     number of atomic types    =            2
     number of electrons       =        64.00
     number of Kohn-Sham states=           32
     kinetic-energy cutoff     =      25.0000  Ry
     charge density cutoff     =     100.0000  Ry
     scf convergence threshold =      1.0E-08
     mixing beta               =       0.5000
     number of iterations used =            8  plain     mixing
     Exchange-correlation= PBE
                           (   1   4   3   4   0   0   0)
 
     Using Berry phase electric field
     In a.u.(Ry)  cartesian system of reference
        0.0010000000
        0.0000000000
        0.0000000000
     In a.u.(Ry)  crystal system of reference
        0.0010000000
        0.0000000000
        0.0000000000
     Number of iterative cycles:   3
 

     celldm(1)=  10.580000  celldm(2)=   0.000000  celldm(3)=   0.000000
     celldm(4)=   0.000000  celldm(5)=   0.000000  celldm(6)=   0.000000

     crystal axes: (cart. coord. in units of alat)
               a(1) = (   1.000000   0.000000   0.000000 )  
               a(2) = (   0.000000   1.000000   0.000000 )  
               a(3) = (   0.000000   0.000000   1.000000 )  

     reciprocal axes: (cart. coord. in units 2 pi/alat)
               b(1) = (  1.000000  0.000000  0.000000 )  
               b(2) = (  0.000000  1.000000  0.000000 )  
               b(3) = (  0.000000  0.000000  1.000000 )  


     PseudoPot. # 1 for Al read from file:
     ../../pseudo/Al_ONCV_PBE-1.2.upf
     MD5 check sum: 2d9e7bc02555220d62fad08c3c4858e7
     Pseudo is Norm-conserving, Zval = 11.0
     Generated using ONCVPSP code by D. R. Hamann
     Using radial grid of  602 points,  4 beta functions with: 
                l(1) =   0
                l(2) =   0
                l(3) =   1
                l(4) =   1

     PseudoPot. # 2 for As read from file:
     ../../pseudo/As_ONCV_PBE-1.2.upf
     MD5 check sum: a2ff92a4799c87c945fff9e6739df4dd
     Pseudo is Norm-conserving, Zval =  5.0
     Generated using ONCVPSP code by D. R. Hamann
     Using radial grid of  602 points,  6 beta functions with: 
                l(1) =   0
                l(2) =   0
                l(3) =   1
                l(4) =   1
                l(5) =   2
                l(6) =   2

     atomic species   valence    mass     pseudopotential
        Al            11.00    26.98200     Al( 1.00)
        As             5.00    74.92200     As( 1.00)

     No symmetry found



   Cartesian axes

     site n.     atom                  positions (alat units)
         1           Al  tau(   1) = (  -0.1250000  -0.1250000  -0.1250000  )
         2           Al  tau(   2) = (   0.3750000   0.3750000  -0.1250000  )
         3           Al  tau(   3) = (   0.3750000  -0.1250000   0.3750000  )
         4           Al  tau(   4) = (  -0.1250000   0.3750000   0.3750000  )
         5           As  tau(   5) = (   0.1250000   0.1250000   0.1250000  )
         6           As  tau(   6) = (   0.6250000   0.6250000   0.1250000  )
         7           As  tau(   7) = (   0.6250000   0.1250000   0.6250000  )
         8           As  tau(   8) = (   0.1250000   0.6250000   0.6250000  )

     number of k points=    64
                       cart. coord. in units 2pi/alat
        k(    1) = (   0.0000000   0.0000000   0.0000000), wk =   0.0312500
        k(    2) = (   0.0000000   0.0000000   0.2500000), wk =   0.0312500
        k(    3) = (   0.0000000   0.0000000   0.5000000), wk =   0.0312500
        k(    4) = (   0.0000000   0.0000000   0.7500000), wk =   0.0312500
        k(    5) = (   0.0000000   0.2500000   0.0000000), wk =   0.0312500
        k(    6) = (   0.0000000   0.2500000   0.2500000), wk =   0.0312500
        k(    7) = (   0.0000000   0.2500000   0.5000000), wk =   0.0312500
        k(    8) = (   0.0000000   0.2500000   0.7500000), wk =   0.0312500
        k(    9) = (   0.0000000   0.5000000   0.0000000), wk =   0.0312500
        k(   10) = (   0.0000000   0.5000000   0.2500000), wk =   0.0312500
        k(   11) = (   0.0000000   0.5000000   0.5000000), wk =   0.0312500
        k(   12) = (   0.0000000   0.5000000   0.7500000), wk =   0.0312500
        k(   13) = (   0.0000000   0.7500000   0.0000000), wk =   0.0312500
        k(   14) = (   0.0000000   0.7500000   0.2500000), wk =   0.0312500
        k(   15) = (   0.0000000   0.7500000   0.5000000), wk =   0.0312500
        k(   16) = (   0.0000000   0.7500000   0.7500000), wk =   0.0312500
        k(   17) = (   0.2500000   0.0000000   0.0000000), wk =   0.0312500
        k(   18) = (   0.2500000   0.0000000   0.2500000), wk =   0.0312500
        k(   19) = (   0.2500000   0.0000000   0.5000000), wk =   0.0312500
        k(   20) = (   0.2500000   0.0000000   0.7500000), wk =   0.0312500
        k(   21) = (   0.2500000   0.2500000   0.0000000), wk =   0.0312500
        k(   22) = (   0.2500000   0.2500000   0.2500000), wk =   0.0312500
        k(   23) = (   0.2500000   0.2500000   0.5000000), wk =   0.0312500
        k(   24) = (   0.2500000   0.2500000   0.7500000), wk =   0.0312500
        k(   25) = (   0.2500000   0.5000000   0.0000000), wk =   0.0312500
        k(   26) = (   0.2500000   0.5000000   0.2500000), wk =   0.0312500
        k(   27) = (   0.2500000   0.5000000   0.5000000), wk =   0.0312500
        k(   28) = (   0.2500000   0.5000000   0.7500000), wk =   0.0312500
        k(   29) = (   0.2500000   0.7500000   0.0000000), wk =   0.0312500
        k(   30) = (   0.2500000   0.7500000   0.2500000), wk =   0.0312500
        k(   31) = (   0.2500000   0.7500000   0.5000000), wk =   0.0312500
        k(   32) = (   0.2500000   0.7500000   0.7500000), wk =   0.0312500
        k(   33) = (   0.5000000   0.0000000   0.0000000), wk =   0.0312500
        k(   34) = (   0.5000000   0.0000000   0.2500000), wk =   0.0312500
        k(   35) = (   0.5000000   0.0000000   0.5000000), wk =   0.0312500
        k(   36) = (   0.5000000   0.0000000   0.7500000), wk =   0.0312500
        k(   37) = (   0.5000000   0.2500000   0.0000000), wk =   0.0312500
        k(   38) = (   0.5000000   0.2500000   0.2500000), wk =   0.0312500
        k(   39) = (   0.5000000   0.2500000   0.5000000), wk =   0.0312500
        k(   40) = (   0.5000000   0.2500000   0.7500000), wk =   0.0312500
        k(   41) = (   0.5000000   0.5000000   0.0000000), wk =   0.0312500
        k(   42) = (   0.5000000   0.5000000   0.2500000), wk =   0.0312500
        k(   43) = (   0.5000000   0.5000000   0.5000000), wk =   0.0312500
        k(   44) = (   0.5000000   0.5000000   0.7500000), wk =   0.0312500
        k(   45) = (   0.5000000   0.7500000   0.0000000), wk =   0.0312500
        k(   46) = (   0.5000000   0.7500000   0.2500000), wk =   0.0312500
        k(   47) = (   0.5000000   0.7500000   0.5000000), wk =   0.0312500
        k(   48) = (   0.5000000   0.7500000   0.7500000), wk =   0.0312500
        k(   49) = (   0.7500000   0.0000000   0.0000000), wk =   0.0312500
        k(   50) = (   0.7500000   0.0000000   0.2500000), wk =   0.0312500
        k(   51) = (   0.7500000   0.0000000   0.5000000), wk =   0.0312500
        k(   52) = (   0.7500000   0.0000000   0.7500000), wk =   0.0312500
        k(   53) = (   0.7500000   0.2500000   0.0000000), wk =   0.0312500
        k(   54) = (   0.7500000   0.2500000   0.2500000), wk =   0.0312500
        k(   55) = (   0.7500000   0.2500000   0.5000000), wk =   0.0312500
        k(   56) = (   0.7500000   0.2500000   0.7500000), wk =   0.0312500
        k(   57) = (   0.7500000   0.5000000   0.0000000), wk =   0.0312500
        k(   58) = (   0.7500000   0.5000000   0.2500000), wk =   0.0312500
        k(   59) = (   0.7500000   0.5000000   0.5000000), wk =   0.0312500
        k(   60) = (   0.7500000   0.5000000   0.7500000), wk =   0.0312500
        k(   61) = (   0.7500000   0.7500000   0.0000000), wk =   0.0312500
        k(   62) = (   0.7500000   0.7500000   0.2500000), wk =   0.0312500
        k(   63) = (   0.7500000   0.7500000   0.5000000), wk =   0.0312500
        k(   64) = (   0.7500000   0.7500000   0.7500000), wk =   0.0312500

     Dense  grid:    20005 G-vectors     FFT dimensions: (  36,  36,  36)

     Estimated max dynamical RAM per process >      26.93 MB

     Estimated total dynamical RAM >     107.72 MB

     Initial potential from superposition of free atoms

     starting charge      63.5461, renormalised to      64.0000
     Starting wfcs are random

     total cpu time spent up to now is        0.9 secs

     Self-consistent Calculation

     iteration #  1     ecut=    25.00 Ry     beta= 0.50
     Davidson diagonalization with overlap
     ethr =  1.00E-02,  avg # of iterations =  8.3
     Davidson diagonalization with overlap
     ethr =  1.00E-02,  avg # of iterations =  1.8
     Davidson diagonalization with overlap
     ethr =  1.00E-02,  avg # of iterations =  1.0
 
     Expectation value of exp(iGx): (0.186869493055400,1.957201444019022E-002)
   1.00000000000000     
     Electronic Dipole per cell (Ry a.u.)  0.497012585741885     
     Ionic Dipole per cell (Ry a.u.)   194.510933368796     
 
     Expectation value of exp(iGx): (0.186923962761898,-7.815578797121313E-004)
   1.00000000000000     
     Electronic Dipole per cell (Ry a.u.) -1.991335465990211E-002
     Ionic Dipole per cell (Ry a.u.)   194.510933368795     
 
     Expectation value of exp(iGx): (0.187239635435206,-9.176178957065503E-004)
   1.00000000000000     
     Electronic Dipole per cell (Ry a.u.) -2.334056710394561E-002
     Ionic Dipole per cell (Ry a.u.)   194.510933368796     
Electronic Dipole on Cartesian axes
           1  0.497012585741885     
           2 -1.991335465990211E-002
           3 -2.334056710394561E-002
Ionic Dipole on Cartesian axes
           1   194.510933368796     
           2   194.510933368795     
           3   194.510933368796     

     total cpu time spent up to now is       46.5 secs

     total energy              =    -599.02818884 Ry
     estimated scf accuracy    <       1.36939399 Ry

     iteration #  2     ecut=    25.00 Ry     beta= 0.50
     Davidson diagonalization with overlap
     ethr =  2.14E-03,  avg # of iterations =  2.0
     Davidson diagonalization with overlap
     ethr =  2.14E-03,  avg # of iterations =  1.0
     Davidson diagonalization with overlap
     ethr =  2.14E-03,  avg # of iterations =  1.0
 
     Expectation value of exp(iGx): (0.159453810785651,2.332271371856274E-002)
   1.00000000000000     
     Electronic Dipole per cell (Ry a.u.)  0.691713480559582     
     Ionic Dipole per cell (Ry a.u.)   194.510933368796     
 
     Expectation value of exp(iGx): (0.161154300502406,-1.162783941458005E-004)
   1.00000000000000     
     Electronic Dipole per cell (Ry a.u.) -3.436432703219504E-003
     Ionic Dipole per cell (Ry a.u.)   194.510933368795     
 
     Expectation value of exp(iGx): (0.161162084334713,-1.008313940411185E-004)
   1.00000000000000     
     Electronic Dipole per cell (Ry a.u.) -2.979776097965018E-003
     Ionic Dipole per cell (Ry a.u.)   194.510933368796     
Electronic Dipole on Cartesian axes
           1  0.691713480559582     
           2 -3.436432703219504E-003
           3 -2.979776097965018E-003
Ionic Dipole on Cartesian axes
           1   194.510933368796     
           2   194.510933368795     
           3   194.510933368796     

     total cpu time spent up to now is       75.9 secs

     total energy              =    -599.07053665 Ry
     estimated scf accuracy    <       0.15447292 Ry

     iteration #  3     ecut=    25.00 Ry     beta= 0.50
     Davidson diagonalization with overlap
     ethr =  2.41E-04,  avg # of iterations =  2.0
     Davidson diagonalization with overlap
     ethr =  2.41E-04,  avg # of iterations =  1.0
     Davidson diagonalization with overlap
     ethr =  2.41E-04,  avg # of iterations =  1.0
 
     Expectation value of exp(iGx): (0.155946485566186,2.394246590973745E-002)
   1.00000000000000     
     Electronic Dipole per cell (Ry a.u.)  0.725547949022191     
     Ionic Dipole per cell (Ry a.u.)   194.510933368796     
 
     Expectation value of exp(iGx): (0.157824186357571,-3.362093341441027E-005)
   1.00000000000000     
     Electronic Dipole per cell (Ry a.u.) -1.014581627737241E-003
     Ionic Dipole per cell (Ry a.u.)   194.510933368795     
 
     Expectation value of exp(iGx): (0.157828098548608,-4.176005181421227E-005)
   1.00000000000000     
     Electronic Dipole per cell (Ry a.u.) -1.260165214499855E-003
     Ionic Dipole per cell (Ry a.u.)   194.510933368796     
Electronic Dipole on Cartesian axes
           1  0.725547949022191     
           2 -1.014581627737241E-003
           3 -1.260165214499855E-003
Ionic Dipole on Cartesian axes
           1   194.510933368796     
           2   194.510933368795     
           3   194.510933368796     

     total cpu time spent up to now is      105.8 secs

     total energy              =    -599.07442391 Ry
     estimated scf accuracy    <       0.01065819 Ry

     iteration #  4     ecut=    25.00 Ry     beta= 0.50
     Davidson diagonalization with overlap
     ethr =  1.67E-05,  avg # of iterations =  2.0
     Davidson diagonalization with overlap
     ethr =  1.67E-05,  avg # of iterations =  1.0
     Davidson diagonalization with overlap
     ethr =  1.67E-05,  avg # of iterations =  1.0
 
     Expectation value of exp(iGx): (0.156011362495897,2.432637175056326E-002)
   1.00000000000000     
     Electronic Dipole per cell (Ry a.u.)  0.736696734284018     
     Ionic Dipole per cell (Ry a.u.)   194.510933368796     
 
     Expectation value of exp(iGx): (0.157960522796227,3.146758583205461E-006)
   1.00000000000000     
     Electronic Dipole per cell (Ry a.u.)  9.487802938188394E-005
     Ionic Dipole per cell (Ry a.u.)   194.510933368795     
 
     Expectation value of exp(iGx): (0.157961698287080,-1.160524060207064E-005)
   1.00000000000000     
     Electronic Dipole per cell (Ry a.u.) -3.499074155330220E-004
     Ionic Dipole per cell (Ry a.u.)   194.510933368796     
Electronic Dipole on Cartesian axes
           1  0.736696734284018     
           2  9.487802938188394E-005
           3 -3.499074155330220E-004
Ionic Dipole on Cartesian axes
           1   194.510933368796     
           2   194.510933368795     
           3   194.510933368796     

     total cpu time spent up to now is      136.2 secs

     total energy              =    -599.07515299 Ry
     estimated scf accuracy    <       0.00015668 Ry

     iteration #  5     ecut=    25.00 Ry     beta= 0.50
     Davidson diagonalization with overlap
     ethr =  2.45E-07,  avg # of iterations =  2.2
     Davidson diagonalization with overlap
     ethr =  2.45E-07,  avg # of iterations =  1.0
     Davidson diagonalization with overlap
     ethr =  2.45E-07,  avg # of iterations =  1.0
 
     Expectation value of exp(iGx): (0.155925271274251,2.448966598526695E-002)
   1.00000000000000     
     Electronic Dipole per cell (Ry a.u.)  0.741965484754890     
     Ionic Dipole per cell (Ry a.u.)   194.510933368796     
 
     Expectation value of exp(iGx): (0.157904961990525,3.000492332037299E-006)
   1.00000000000000     
     Electronic Dipole per cell (Ry a.u.)  9.049978273137951E-005
     Ionic Dipole per cell (Ry a.u.)   194.510933368795     
 
     Expectation value of exp(iGx): (0.157905425029316,3.438728873505961E-007)
   1.00000000000000     
     Electronic Dipole per cell (Ry a.u.)  1.037174133289315E-005
     Ionic Dipole per cell (Ry a.u.)   194.510933368796     
Electronic Dipole on Cartesian axes
           1  0.741965484754890     
           2  9.049978273137951E-005
           3  1.037174133289315E-005
Ionic Dipole on Cartesian axes
           1   194.510933368796     
           2   194.510933368795     
           3   194.510933368796     

     total cpu time spent up to now is      167.6 secs

     total energy              =    -599.07516202 Ry
     estimated scf accuracy    <       0.00000624 Ry

     iteration #  6     ecut=    25.00 Ry     beta= 0.50
     Davidson diagonalization with overlap
     ethr =  9.74E-09,  avg # of iterations =  2.4
     Davidson diagonalization with overlap
     ethr =  9.74E-09,  avg # of iterations =  1.0
     Davidson diagonalization with overlap
     ethr =  9.74E-09,  avg # of iterations =  1.0
 
     Expectation value of exp(iGx): (0.155927085287419,2.451981416610884E-002)
   1.00000000000000     
     Electronic Dipole per cell (Ry a.u.)  0.742855650167542     
     Ionic Dipole per cell (Ry a.u.)   194.510933368796     
 
     Expectation value of exp(iGx): (0.157912391848736,8.605881748203602E-007)
   1.00000000000000     
     Electronic Dipole per cell (Ry a.u.)  2.595553322457657E-005
     Ionic Dipole per cell (Ry a.u.)   194.510933368795     
 
     Expectation value of exp(iGx): (0.157912442742596,4.519074302412451E-007)
   1.00000000000000     
     Electronic Dipole per cell (Ry a.u.)  1.362962550846673E-005
     Ionic Dipole per cell (Ry a.u.)   194.510933368796     
Electronic Dipole on Cartesian axes
           1  0.742855650167542     
           2  2.595553322457657E-005
           3  1.362962550846673E-005
Ionic Dipole on Cartesian axes
           1   194.510933368796     
           2   194.510933368795     
           3   194.510933368796     

     total cpu time spent up to now is      199.7 secs

     total energy              =    -599.07516265 Ry
     estimated scf accuracy    <       0.00000091 Ry

     iteration #  7     ecut=    25.00 Ry     beta= 0.50
     Davidson diagonalization with overlap
     ethr =  1.42E-09,  avg # of iterations =  2.0
     Davidson diagonalization with overlap
     ethr =  1.42E-09,  avg # of iterations =  1.0
     Davidson diagonalization with overlap
     ethr =  1.42E-09,  avg # of iterations =  1.0
 
     Expectation value of exp(iGx): (0.155947450837936,2.452027929860110E-002)
   1.00000000000000     
     Electronic Dipole per cell (Ry a.u.)  0.742774066878551     
     Ionic Dipole per cell (Ry a.u.)   194.510933368796     
 
     Expectation value of exp(iGx): (0.157932541590323,-4.202371564441133E-007)
   1.00000000000000     
     Electronic Dipole per cell (Ry a.u.) -1.267283024605059E-005
     Ionic Dipole per cell (Ry a.u.)   194.510933368795     
 
     Expectation value of exp(iGx): (0.157932585981230,-5.724683467371594E-007)
   1.00000000000000     
     Electronic Dipole per cell (Ry a.u.) -1.726356660525759E-005
     Ionic Dipole per cell (Ry a.u.)   194.510933368796     
Electronic Dipole on Cartesian axes
           1  0.742774066878551     
           2 -1.267283024605059E-005
           3 -1.726356660525759E-005
Ionic Dipole on Cartesian axes
           1   194.510933368796     
           2   194.510933368795     
           3   194.510933368796     

     total cpu time spent up to now is      230.3 secs

     total energy              =    -599.07516270 Ry
     estimated scf accuracy    <       0.00000002 Ry

     iteration #  8     ecut=    25.00 Ry     beta= 0.50
     Davidson diagonalization with overlap
     ethr =  2.99E-11,  avg # of iterations =  2.6
     Davidson diagonalization with overlap
     ethr =  2.99E-11,  avg # of iterations =  1.0
     Davidson diagonalization with overlap
     ethr =  2.99E-11,  avg # of iterations =  1.0
 
     Expectation value of exp(iGx): (0.155951044029586,2.452260941224284E-002)
   1.00000000000000     
     Electronic Dipole per cell (Ry a.u.)  0.742826672821097     
     Ionic Dipole per cell (Ry a.u.)   194.510933368796     
 
     Expectation value of exp(iGx): (0.157936493309365,-1.745326259987821E-007)
   1.00000000000000     
     Electronic Dipole per cell (Ry a.u.) -5.263140029172249E-006
     Ionic Dipole per cell (Ry a.u.)   194.510933368795     
 
     Expectation value of exp(iGx): (0.157936512248734,-1.663941772422906E-007)
   1.00000000000000     
     Electronic Dipole per cell (Ry a.u.) -5.017719436848013E-006
     Ionic Dipole per cell (Ry a.u.)   194.510933368796     
Electronic Dipole on Cartesian axes
           1  0.742826672821097     
           2 -5.263140029172249E-006
           3 -5.017719436848013E-006
Ionic Dipole on Cartesian axes
           1   194.510933368796     
           2   194.510933368795     
           3   194.510933368796     

     total cpu time spent up to now is      259.9 secs

     End of self-consistent calculation

          k = 0.0000 0.0000 0.0000 (  2517 PWs)   bands (ev):

  -100.2680-100.2680-100.2680 -99.9107 -60.4817 -60.4817 -60.4817 -60.2461
   -60.2421 -60.2420 -60.2419 -60.2419 -60.2379 -60.0022 -59.9981 -59.9939
    -5.6158  -3.4107  -3.4107  -3.4107   0.7452   0.7452   0.7453   4.4427
     4.4444   4.4444   4.4445   4.4446   4.4446   6.5514   6.5532   6.5548

          k = 0.0000 0.0000 0.2500 (  2501 PWs)   bands (ev):

  -100.2007-100.2007-100.1601 -99.8968 -60.3740 -60.2553 -60.2537 -60.2523
   -60.2497 -60.2465 -60.2454 -60.1435 -60.1433 -59.9822 -59.9813 -59.9627
    -5.3947  -3.9157  -3.3862  -3.3862   0.9026   0.9027   1.5344   3.8406
     3.8409   4.0439   4.0442   4.6749   4.6752   5.1321   6.0955   6.0958

          k = 0.0000 0.0000 0.5000 (  2496 PWs)   bands (ev):

  -100.2139-100.2139 -99.9762 -99.9762 -60.3015 -60.3015 -60.3014 -60.3014
   -60.2197 -60.2197 -60.0454 -60.0454 -60.0424 -60.0424 -60.0133 -60.0132
    -4.7700  -4.7700  -3.3626  -3.3626   1.1163   1.1163   3.1754   3.1754
     3.3327   3.3327   3.7683   3.7683   5.2609   5.2609   5.2613   5.2613

          k = 0.0000 0.0000 0.7500 (  2501 PWs)   bands (ev):

  -100.2007-100.2007-100.1601 -99.8968 -60.3740 -60.2553 -60.2537 -60.2523
   -60.2497 -60.2465 -60.2454 -60.1435 -60.1433 -59.9822 -59.9813 -59.9627
    -5.3947  -3.9157  -3.3862  -3.3862   0.9026   0.9027   1.5344   3.8406
     3.8409   4.0439   4.0442   4.6749   4.6752   5.1321   6.0955   6.0958

          k = 0.0000 0.2500 0.0000 (  2501 PWs)   bands (ev):

  -100.2007-100.2007-100.1601 -99.8968 -60.3740 -60.2553 -60.2537 -60.2523
   -60.2497 -60.2465 -60.2454 -60.1435 -60.1433 -59.9822 -59.9813 -59.9627
    -5.3947  -3.9157  -3.3862  -3.3862   0.9026   0.9027   1.5344   3.8406
     3.8409   4.0439   4.0442   4.6749   4.6752   5.1321   6.0955   6.0958

          k = 0.0000 0.2500 0.2500 (  2512 PWs)   bands (ev):

  -100.2550-100.2550-100.1179 -99.9712 -60.4212 -60.4212 -60.2894 -60.2894
   -60.2381 -60.1985 -60.1985 -60.1760 -60.0969 -60.0672 -60.0535 -60.0270
    -5.1819  -3.8240  -3.8239  -3.4412   1.0270   1.4442   1.4443   3.0935
     3.9856   3.9856   4.0276   4.5507   4.5507   4.8415   5.5319   6.4366

          k = 0.0000 0.2500 0.5000 (  2522 PWs)   bands (ev):

  -100.2643-100.2643-100.1070-100.1070 -60.3600 -60.3544 -60.3475 -60.3475
   -60.2254 -60.2197 -60.2065 -60.2064 -60.1869 -60.1788 -60.1385 -60.1304
    -4.5974  -4.5968  -3.6166  -3.6157   1.2399   1.2431   2.6239   2.6275
     3.1272   3.1277   4.6061   4.6067   4.7027   4.7050   5.6431   5.6455

          k = 0.0000 0.2500 0.7500 (  2512 PWs)   bands (ev):

  -100.2550-100.2550-100.1179 -99.9712 -60.4182 -60.4182 -60.2894 -60.2894
   -60.2381 -60.2016 -60.2015 -60.1841 -60.0886 -60.0672 -60.0616 -60.0188
    -5.1816  -3.8245  -3.8245  -3.4405   1.0255   1.4468   1.4468   3.0917
     3.9853   3.9853   4.0242   4.5488   4.5489   4.8433   5.5325   6.4386

          k = 0.0000 0.5000 0.0000 (  2496 PWs)   bands (ev):

  -100.2139-100.2139 -99.9762 -99.9762 -60.3015 -60.3015 -60.3014 -60.3014
   -60.2197 -60.2197 -60.0454 -60.0454 -60.0424 -60.0424 -60.0133 -60.0133
    -4.7700  -4.7700  -3.3626  -3.3626   1.1163   1.1163   3.1754   3.1754
     3.3327   3.3327   3.7683   3.7683   5.2609   5.2609   5.2613   5.2613

          k = 0.0000 0.5000 0.2500 (  2522 PWs)   bands (ev):

  -100.2643-100.2643-100.1070-100.1070 -60.3600 -60.3544 -60.3475 -60.3475
   -60.2254 -60.2197 -60.2065 -60.2064 -60.1869 -60.1788 -60.1385 -60.1304
    -4.5974  -4.5968  -3.6166  -3.6157   1.2399   1.2431   2.6239   2.6275
     3.1272   3.1277   4.6061   4.6067   4.7027   4.7050   5.6431   5.6455

          k = 0.0000 0.5000 0.5000 (  2496 PWs)   bands (ev):

  -100.1039-100.1039-100.1039-100.1039 -60.2730 -60.2730 -60.2730 -60.2730
   -60.1990 -60.1989 -60.1908 -60.1908 -60.0298 -60.0298 -60.0216 -60.0216
    -4.1448  -4.1448  -4.1439  -4.1438   1.7845   1.7845   1.7886   1.7886
     3.6388   3.6388   3.6392   3.6392   5.7491   5.7491   5.7511   5.7511

          k = 0.0000 0.5000 0.7500 (  2522 PWs)   bands (ev):

  -100.2643-100.2643-100.1070-100.1070 -60.3600 -60.3544 -60.3475 -60.3475
   -60.2254 -60.2197 -60.2065 -60.2064 -60.1869 -60.1788 -60.1385 -60.1304
    -4.5974  -4.5968  -3.6166  -3.6157   1.2399   1.2431   2.6239   2.6275
     3.1272   3.1277   4.6061   4.6067   4.7027   4.7050   5.6431   5.6455

          k = 0.0000 0.7500 0.0000 (  2501 PWs)   bands (ev):

  -100.2007-100.2007-100.1601 -99.8968 -60.3740 -60.2553 -60.2537 -60.2523
   -60.2497 -60.2465 -60.2454 -60.1435 -60.1433 -59.9822 -59.9813 -59.9627
    -5.3947  -3.9157  -3.3862  -3.3862   0.9026   0.9027   1.5344   3.8406
     3.8409   4.0439   4.0442   4.6749   4.6752   5.1321   6.0955   6.0958

          k = 0.0000 0.7500 0.2500 (  2512 PWs)   bands (ev):

  -100.2550-100.2550-100.1179 -99.9712 -60.4182 -60.4182 -60.2894 -60.2894
   -60.2381 -60.2016 -60.2015 -60.1841 -60.0886 -60.0672 -60.0616 -60.0188
    -5.1816  -3.8245  -3.8245  -3.4405   1.0255   1.4468   1.4468   3.0917
     3.9853   3.9853   4.0242   4.5488   4.5489   4.8433   5.5325   6.4386

          k = 0.0000 0.7500 0.5000 (  2522 PWs)   bands (ev):

  -100.2643-100.2643-100.1070-100.1070 -60.3600 -60.3544 -60.3475 -60.3475
   -60.2254 -60.2197 -60.2065 -60.2064 -60.1869 -60.1788 -60.1385 -60.1304
    -4.5974  -4.5968  -3.6166  -3.6157   1.2399   1.2431   2.6239   2.6275
     3.1272   3.1277   4.6061   4.6067   4.7027   4.7050   5.6431   5.6455

          k = 0.0000 0.7500 0.7500 (  2512 PWs)   bands (ev):

  -100.2550-100.2550-100.1179 -99.9712 -60.4212 -60.4212 -60.2894 -60.2894
   -60.2381 -60.1985 -60.1985 -60.1760 -60.0969 -60.0672 -60.0535 -60.0270
    -5.1819  -3.8240  -3.8239  -3.4412   1.0270   1.4442   1.4443   3.0935
     3.9856   3.9856   4.0276   4.5507   4.5507   4.8415   5.5319   6.4366

          k = 0.2500 0.0000 0.0000 (  2501 PWs)   bands (ev):

  -100.2007-100.2007-100.1601 -99.8968 -60.3740 -60.2553 -60.2553 -60.2496
   -60.2495 -60.2466 -60.2466 -60.1475 -60.1393 -59.9854 -59.9771 -59.9637
    -5.3947  -3.9157  -3.3862  -3.3862   0.9026   0.9026   1.5345   3.8408
     3.8408   4.0442   4.0442   4.6733   4.6751   5.1324   6.0942   6.0960

          k = 0.2500 0.0000 0.2500 (  2512 PWs)   bands (ev):

  -100.2550-100.2550-100.1179 -99.9712 -60.4198 -60.4197 -60.2895 -60.2892
   -60.2382 -60.2002 -60.1999 -60.1799 -60.0927 -60.0681 -60.0568 -60.0227
    -5.1818  -3.8242  -3.8242  -3.4409   1.0262   1.4455   1.4456   3.0926
     3.9852   3.9855   4.0258   4.5495   4.5497   4.8432   5.5320   6.4382

          k = 0.2500 0.0000 0.5000 (  2522 PWs)   bands (ev):

  -100.2643-100.2643-100.1070-100.1070 -60.3574 -60.3574 -60.3473 -60.3473
   -60.2226 -60.2225 -60.2069 -60.2068 -60.1825 -60.1825 -60.1344 -60.1344
    -4.5971  -4.5971  -3.6162  -3.6162   1.2415   1.2415   2.6257   2.6257
     3.1274   3.1274   4.6065   4.6065   4.7041   4.7041   5.6444   5.6444

          k = 0.2500 0.0000 0.7500 (  2512 PWs)   bands (ev):

  -100.2550-100.2550-100.1179 -99.9712 -60.4198 -60.4197 -60.2895 -60.2892
   -60.2382 -60.2002 -60.1999 -60.1799 -60.0927 -60.0681 -60.0568 -60.0227
    -5.1818  -3.8242  -3.8242  -3.4409   1.0262   1.4455   1.4456   3.0926
     3.9852   3.9855   4.0258   4.5495   4.5497   4.8432   5.5320   6.4382

          k = 0.2500 0.2500 0.0000 (  2512 PWs)   bands (ev):

  -100.2550-100.2550-100.1179 -99.9712 -60.4198 -60.4197 -60.2895 -60.2892
   -60.2382 -60.2002 -60.1999 -60.1799 -60.0927 -60.0681 -60.0568 -60.0227
    -5.1818  -3.8242  -3.8242  -3.4409   1.0262   1.4455   1.4456   3.0926
     3.9852   3.9855   4.0258   4.5495   4.5497   4.8432   5.5320   6.4382

          k = 0.2500 0.2500 0.2500 (  2494 PWs)   bands (ev):

  -100.1202-100.1202-100.1202-100.0019 -60.2571 -60.2571 -60.2557 -60.2125
   -60.1911 -60.1910 -60.1884 -60.0822 -60.0781 -60.0781 -60.0143 -60.0089
    -4.9852  -3.7838  -3.7832  -3.7832   1.2218   1.2219   1.2240   3.0436
     3.7873   3.7875   3.7875   5.0255   5.0271   5.0271   6.1426   6.1451

          k = 0.2500 0.2500 0.5000 (  2516 PWs)   bands (ev):

  -100.2798-100.2797-100.0569-100.0568 -60.4120 -60.4072 -60.3428 -60.3428
   -60.2701 -60.2661 -60.2268 -60.2220 -60.1147 -60.1107 -60.0087 -60.0087
    -4.4519  -4.4513  -3.7492  -3.7483   0.9846   0.9874   1.9076   1.9103
     3.7981   3.7982   5.0696   5.0712   5.2529   5.2549   5.5377   5.5378

          k = 0.2500 0.2500 0.7500 (  2494 PWs)   bands (ev):

  -100.1202-100.1202-100.1202-100.0019 -60.2561 -60.2548 -60.2547 -60.2179
   -60.1962 -60.1935 -60.1934 -60.0781 -60.0781 -60.0740 -60.0116 -60.0061
    -4.9849  -3.7839  -3.7838  -3.7832   1.2224   1.2245   1.2245   3.0415
     3.7854   3.7854   3.7857   5.0271   5.0271   5.0273   6.1443   6.1445

          k = 0.2500 0.5000 0.0000 (  2522 PWs)   bands (ev):

  -100.2643-100.2643-100.1070-100.1070 -60.3574 -60.3574 -60.3473 -60.3473
   -60.2226 -60.2225 -60.2069 -60.2068 -60.1825 -60.1825 -60.1344 -60.1344
    -4.5971  -4.5971  -3.6162  -3.6162   1.2415   1.2415   2.6257   2.6257
     3.1274   3.1274   4.6065   4.6065   4.7041   4.7041   5.6444   5.6444

          k = 0.2500 0.5000 0.2500 (  2516 PWs)   bands (ev):

  -100.2798-100.2797-100.0569-100.0568 -60.4120 -60.4072 -60.3428 -60.3428
   -60.2701 -60.2661 -60.2268 -60.2220 -60.1147 -60.1107 -60.0087 -60.0087
    -4.4519  -4.4513  -3.7492  -3.7483   0.9846   0.9874   1.9076   1.9103
     3.7981   3.7982   5.0696   5.0712   5.2529   5.2549   5.5377   5.5378

          k = 0.2500 0.5000 0.5000 (  2484 PWs)   bands (ev):

  -100.0642-100.0642-100.0642-100.0641 -60.2494 -60.2493 -60.2432 -60.2432
   -60.1118 -60.1118 -60.1098 -60.1098 -60.0350 -60.0349 -60.0267 -60.0267
    -4.0954  -4.0954  -4.0944  -4.0944   1.1307   1.1307   1.1339   1.1339
     4.7271   4.7271   4.7277   4.7277   5.7906   5.7906   5.7926   5.7926

          k = 0.2500 0.5000 0.7500 (  2516 PWs)   bands (ev):

  -100.2798-100.2797-100.0569-100.0568 -60.4120 -60.4072 -60.3428 -60.3428
   -60.2701 -60.2661 -60.2268 -60.2220 -60.1147 -60.1107 -60.0087 -60.0087
    -4.4519  -4.4513  -3.7492  -3.7483   0.9846   0.9874   1.9076   1.9103
     3.7981   3.7982   5.0696   5.0712   5.2529   5.2549   5.5377   5.5378

          k = 0.2500 0.7500 0.0000 (  2512 PWs)   bands (ev):

  -100.2550-100.2550-100.1179 -99.9712 -60.4198 -60.4197 -60.2895 -60.2892
   -60.2382 -60.2002 -60.1999 -60.1799 -60.0927 -60.0681 -60.0568 -60.0227
    -5.1818  -3.8242  -3.8242  -3.4409   1.0262   1.4455   1.4456   3.0926
     3.9852   3.9855   4.0258   4.5495   4.5497   4.8432   5.5320   6.4382

          k = 0.2500 0.7500 0.2500 (  2494 PWs)   bands (ev):

  -100.1202-100.1202-100.1202-100.0019 -60.2561 -60.2548 -60.2547 -60.2179
   -60.1962 -60.1935 -60.1934 -60.0781 -60.0781 -60.0740 -60.0116 -60.0061
    -4.9849  -3.7839  -3.7838  -3.7832   1.2224   1.2245   1.2245   3.0415
     3.7854   3.7854   3.7857   5.0271   5.0271   5.0273   6.1443   6.1445

          k = 0.2500 0.7500 0.5000 (  2516 PWs)   bands (ev):

  -100.2798-100.2797-100.0569-100.0568 -60.4120 -60.4072 -60.3428 -60.3428
   -60.2701 -60.2661 -60.2268 -60.2220 -60.1147 -60.1107 -60.0087 -60.0087
    -4.4519  -4.4513  -3.7492  -3.7483   0.9846   0.9874   1.9076   1.9103
     3.7981   3.7982   5.0696   5.0712   5.2529   5.2549   5.5377   5.5378

          k = 0.2500 0.7500 0.7500 (  2494 PWs)   bands (ev):

  -100.1202-100.1202-100.1202-100.0019 -60.2571 -60.2571 -60.2557 -60.2125
   -60.1911 -60.1910 -60.1884 -60.0822 -60.0781 -60.0781 -60.0143 -60.0089
    -4.9852  -3.7838  -3.7832  -3.7832   1.2218   1.2219   1.2240   3.0436
     3.7873   3.7875   3.7875   5.0255   5.0271   5.0271   6.1426   6.1451

          k = 0.5000 0.0000 0.0000 (  2496 PWs)   bands (ev):

  -100.2139-100.2139 -99.9762 -99.9762 -60.3054 -60.3054 -60.2972 -60.2972
   -60.2200 -60.2200 -60.0479 -60.0479 -60.0392 -60.0392 -60.0139 -60.0139
    -4.7700  -4.7699  -3.3626  -3.3626   1.1163   1.1163   3.1755   3.1755
     3.3327   3.3327   3.7683   3.7683   5.2596   5.2596   5.2614   5.2615

          k = 0.5000 0.0000 0.2500 (  2522 PWs)   bands (ev):

  -100.2643-100.2643-100.1070-100.1070 -60.3584 -60.3584 -60.3462 -60.3462
   -60.2227 -60.2227 -60.2068 -60.2068 -60.1825 -60.1825 -60.1344 -60.1344
    -4.5971  -4.5971  -3.6162  -3.6162   1.2415   1.2415   2.6257   2.6257
     3.1274   3.1274   4.6063   4.6063   4.7041   4.7041   5.6442   5.6442

          k = 0.5000 0.0000 0.5000 (  2496 PWs)   bands (ev):

  -100.1039-100.1039-100.1039-100.1039 -60.2731 -60.2731 -60.2731 -60.2730
   -60.1948 -60.1948 -60.1948 -60.1948 -60.0257 -60.0257 -60.0257 -60.0257
    -4.1444  -4.1443  -4.1443  -4.1443   1.7866   1.7866   1.7866   1.7866
     3.6389   3.6389   3.6389   3.6390   5.7508   5.7508   5.7508   5.7508

          k = 0.5000 0.0000 0.7500 (  2522 PWs)   bands (ev):

  -100.2643-100.2643-100.1070-100.1070 -60.3584 -60.3584 -60.3462 -60.3462
   -60.2227 -60.2227 -60.2068 -60.2068 -60.1825 -60.1825 -60.1344 -60.1344
    -4.5971  -4.5971  -3.6162  -3.6162   1.2415   1.2415   2.6257   2.6257
     3.1274   3.1274   4.6063   4.6063   4.7041   4.7041   5.6442   5.6442

          k = 0.5000 0.2500 0.0000 (  2522 PWs)   bands (ev):

  -100.2643-100.2643-100.1070-100.1070 -60.3584 -60.3584 -60.3462 -60.3462
   -60.2227 -60.2227 -60.2068 -60.2068 -60.1825 -60.1825 -60.1344 -60.1344
    -4.5971  -4.5971  -3.6162  -3.6162   1.2415   1.2415   2.6257   2.6257
     3.1274   3.1274   4.6063   4.6063   4.7041   4.7041   5.6442   5.6442

          k = 0.5000 0.2500 0.2500 (  2516 PWs)   bands (ev):

  -100.2798-100.2797-100.0569-100.0568 -60.4127 -60.4127 -60.3387 -60.3386
   -60.2646 -60.2645 -60.2254 -60.2254 -60.1122 -60.1122 -60.0129 -60.0128
    -4.4518  -4.4518  -3.7484  -3.7484   0.9846   0.9846   1.9098   1.9098
     3.7996   3.7997   5.0700   5.0700   5.2549   5.2549   5.5361   5.5361

          k = 0.5000 0.2500 0.5000 (  2484 PWs)   bands (ev):

  -100.0642-100.0642-100.0642-100.0641 -60.2488 -60.2488 -60.2438 -60.2438
   -60.1134 -60.1134 -60.1084 -60.1084 -60.0308 -60.0308 -60.0308 -60.0308
    -4.0953  -4.0953  -4.0946  -4.0945   1.1310   1.1311   1.1336   1.1336
     4.7264   4.7264   4.7279   4.7279   5.7923   5.7923   5.7924   5.7924

          k = 0.5000 0.2500 0.7500 (  2516 PWs)   bands (ev):

  -100.2798-100.2797-100.0569-100.0568 -60.4064 -60.4064 -60.3468 -60.3468
   -60.2716 -60.2716 -60.2236 -60.2236 -60.1133 -60.1132 -60.0046 -60.0046
    -4.4514  -4.4514  -3.7491  -3.7490   0.9874   0.9874   1.9081   1.9081
     3.7966   3.7966   5.0712   5.0712   5.2535   5.2536   5.5380   5.5380

          k = 0.5000 0.5000 0.0000 (  2496 PWs)   bands (ev):

  -100.1039-100.1039-100.1039-100.1039 -60.2731 -60.2731 -60.2731 -60.2730
   -60.1948 -60.1948 -60.1948 -60.1948 -60.0257 -60.0257 -60.0257 -60.0257
    -4.1444  -4.1443  -4.1443  -4.1443   1.7866   1.7866   1.7866   1.7866
     3.6389   3.6389   3.6389   3.6390   5.7508   5.7508   5.7508   5.7508

          k = 0.5000 0.5000 0.2500 (  2484 PWs)   bands (ev):

  -100.0642-100.0642-100.0642-100.0641 -60.2488 -60.2488 -60.2438 -60.2438
   -60.1134 -60.1134 -60.1084 -60.1084 -60.0308 -60.0308 -60.0308 -60.0308
    -4.0953  -4.0953  -4.0946  -4.0945   1.1310   1.1311   1.1336   1.1336
     4.7264   4.7264   4.7279   4.7279   5.7923   5.7923   5.7924   5.7924

          k = 0.5000 0.5000 0.5000 (  2512 PWs)   bands (ev):

  -100.1643-100.1642-100.1642-100.1642 -60.4913 -60.4913 -60.4860 -60.4860
   -60.1048 -60.1048 -60.1021 -60.1020 -60.0994 -60.0994 -60.0966 -60.0965
    -4.0485  -4.0485  -4.0474  -4.0474   0.6924   0.6924   0.6954   0.6954
     5.8203   5.8203   5.8223   5.8223   5.8223   5.8224   5.8232   5.8232

          k = 0.5000 0.5000 0.7500 (  2484 PWs)   bands (ev):

  -100.0642-100.0642-100.0642-100.0641 -60.2488 -60.2488 -60.2438 -60.2438
   -60.1134 -60.1134 -60.1084 -60.1084 -60.0308 -60.0308 -60.0308 -60.0308
    -4.0953  -4.0953  -4.0946  -4.0945   1.1310   1.1311   1.1336   1.1336
     4.7264   4.7264   4.7279   4.7279   5.7923   5.7923   5.7924   5.7924

          k = 0.5000 0.7500 0.0000 (  2522 PWs)   bands (ev):

  -100.2643-100.2643-100.1070-100.1070 -60.3584 -60.3584 -60.3462 -60.3462
   -60.2227 -60.2227 -60.2068 -60.2068 -60.1825 -60.1825 -60.1344 -60.1344
    -4.5971  -4.5971  -3.6162  -3.6162   1.2415   1.2415   2.6257   2.6257
     3.1274   3.1274   4.6063   4.6063   4.7041   4.7041   5.6442   5.6442

          k = 0.5000 0.7500 0.2500 (  2516 PWs)   bands (ev):

  -100.2798-100.2797-100.0569-100.0568 -60.4064 -60.4064 -60.3468 -60.3468
   -60.2716 -60.2716 -60.2236 -60.2236 -60.1133 -60.1132 -60.0046 -60.0046
    -4.4514  -4.4514  -3.7491  -3.7490   0.9874   0.9874   1.9081   1.9081
     3.7966   3.7966   5.0712   5.0712   5.2535   5.2536   5.5380   5.5380

          k = 0.5000 0.7500 0.5000 (  2484 PWs)   bands (ev):

  -100.0642-100.0642-100.0642-100.0641 -60.2488 -60.2488 -60.2438 -60.2438
   -60.1134 -60.1134 -60.1084 -60.1084 -60.0308 -60.0308 -60.0308 -60.0308
    -4.0953  -4.0953  -4.0946  -4.0945   1.1310   1.1311   1.1336   1.1336
     4.7264   4.7264   4.7279   4.7279   5.7923   5.7923   5.7924   5.7924

          k = 0.5000 0.7500 0.7500 (  2516 PWs)   bands (ev):

  -100.2798-100.2797-100.0569-100.0568 -60.4127 -60.4127 -60.3387 -60.3386
   -60.2646 -60.2645 -60.2254 -60.2254 -60.1122 -60.1122 -60.0129 -60.0128
    -4.4518  -4.4518  -3.7484  -3.7484   0.9846   0.9846   1.9098   1.9098
     3.7996   3.7997   5.0700   5.0700   5.2549   5.2549   5.5361   5.5361

          k = 0.7500 0.0000 0.0000 (  2501 PWs)   bands (ev):

  -100.2007-100.2007-100.1601 -99.8968 -60.3740 -60.2553 -60.2553 -60.2496
   -60.2495 -60.2466 -60.2466 -60.1475 -60.1393 -59.9854 -59.9771 -59.9637
    -5.3947  -3.9157  -3.3862  -3.3862   0.9026   0.9026   1.5345   3.8408
     3.8408   4.0442   4.0442   4.6733   4.6751   5.1324   6.0942   6.0960

          k = 0.7500 0.0000 0.2500 (  2512 PWs)   bands (ev):

  -100.2550-100.2550-100.1179 -99.9712 -60.4198 -60.4197 -60.2895 -60.2892
   -60.2382 -60.2002 -60.1999 -60.1799 -60.0927 -60.0681 -60.0568 -60.0227
    -5.1818  -3.8242  -3.8242  -3.4409   1.0262   1.4455   1.4456   3.0926
     3.9852   3.9855   4.0258   4.5495   4.5497   4.8432   5.5320   6.4382

          k = 0.7500 0.0000 0.5000 (  2522 PWs)   bands (ev):

  -100.2643-100.2643-100.1070-100.1070 -60.3574 -60.3574 -60.3473 -60.3473
   -60.2226 -60.2225 -60.2069 -60.2068 -60.1825 -60.1825 -60.1344 -60.1344
    -4.5971  -4.5971  -3.6162  -3.6162   1.2415   1.2415   2.6257   2.6257
     3.1274   3.1274   4.6065   4.6065   4.7041   4.7041   5.6444   5.6444

          k = 0.7500 0.0000 0.7500 (  2512 PWs)   bands (ev):

  -100.2550-100.2550-100.1179 -99.9712 -60.4198 -60.4197 -60.2895 -60.2892
   -60.2382 -60.2002 -60.1999 -60.1799 -60.0927 -60.0681 -60.0568 -60.0227
    -5.1818  -3.8242  -3.8242  -3.4409   1.0262   1.4455   1.4456   3.0926
     3.9852   3.9855   4.0258   4.5495   4.5497   4.8432   5.5320   6.4382

          k = 0.7500 0.2500 0.0000 (  2512 PWs)   bands (ev):

  -100.2550-100.2550-100.1179 -99.9712 -60.4198 -60.4197 -60.2895 -60.2892
   -60.2382 -60.2002 -60.1999 -60.1799 -60.0927 -60.0681 -60.0568 -60.0227
    -5.1818  -3.8242  -3.8242  -3.4409   1.0262   1.4455   1.4456   3.0926
     3.9852   3.9855   4.0258   4.5495   4.5497   4.8432   5.5320   6.4382

          k = 0.7500 0.2500 0.2500 (  2494 PWs)   bands (ev):

  -100.1202-100.1202-100.1202-100.0019 -60.2571 -60.2571 -60.2557 -60.2125
   -60.1911 -60.1910 -60.1884 -60.0822 -60.0781 -60.0781 -60.0143 -60.0089
    -4.9852  -3.7838  -3.7832  -3.7832   1.2218   1.2219   1.2240   3.0436
     3.7873   3.7875   3.7875   5.0255   5.0271   5.0271   6.1426   6.1451

          k = 0.7500 0.2500 0.5000 (  2516 PWs)   bands (ev):

  -100.2798-100.2797-100.0569-100.0568 -60.4120 -60.4072 -60.3428 -60.3428
   -60.2701 -60.2661 -60.2268 -60.2220 -60.1147 -60.1107 -60.0087 -60.0087
    -4.4519  -4.4513  -3.7492  -3.7483   0.9846   0.9874   1.9076   1.9103
     3.7981   3.7982   5.0696   5.0712   5.2529   5.2549   5.5377   5.5378

          k = 0.7500 0.2500 0.7500 (  2494 PWs)   bands (ev):

  -100.1202-100.1202-100.1202-100.0019 -60.2561 -60.2548 -60.2547 -60.2179
   -60.1962 -60.1935 -60.1934 -60.0781 -60.0781 -60.0740 -60.0116 -60.0061
    -4.9849  -3.7839  -3.7838  -3.7832   1.2224   1.2245   1.2245   3.0415
     3.7854   3.7854   3.7857   5.0271   5.0271   5.0273   6.1443   6.1445

          k = 0.7500 0.5000 0.0000 (  2522 PWs)   bands (ev):

  -100.2643-100.2643-100.1070-100.1070 -60.3574 -60.3574 -60.3473 -60.3473
   -60.2226 -60.2225 -60.2069 -60.2068 -60.1825 -60.1825 -60.1344 -60.1344
    -4.5971  -4.5971  -3.6162  -3.6162   1.2415   1.2415   2.6257   2.6257
     3.1274   3.1274   4.6065   4.6065   4.7041   4.7041   5.6444   5.6444

          k = 0.7500 0.5000 0.2500 (  2516 PWs)   bands (ev):

  -100.2798-100.2797-100.0569-100.0568 -60.4120 -60.4072 -60.3428 -60.3428
   -60.2701 -60.2661 -60.2268 -60.2220 -60.1147 -60.1107 -60.0087 -60.0087
    -4.4519  -4.4513  -3.7492  -3.7483   0.9846   0.9874   1.9076   1.9103
     3.7981   3.7982   5.0696   5.0712   5.2529   5.2549   5.5377   5.5378

          k = 0.7500 0.5000 0.5000 (  2484 PWs)   bands (ev):

  -100.0642-100.0642-100.0642-100.0641 -60.2494 -60.2493 -60.2432 -60.2432
   -60.1118 -60.1118 -60.1098 -60.1098 -60.0350 -60.0349 -60.0267 -60.0267
    -4.0954  -4.0954  -4.0944  -4.0944   1.1307   1.1307   1.1339   1.1339
     4.7271   4.7271   4.7277   4.7277   5.7906   5.7906   5.7926   5.7926

          k = 0.7500 0.5000 0.7500 (  2516 PWs)   bands (ev):

  -100.2798-100.2797-100.0569-100.0568 -60.4120 -60.4072 -60.3428 -60.3428
   -60.2701 -60.2661 -60.2268 -60.2220 -60.1147 -60.1107 -60.0087 -60.0087
    -4.4519  -4.4513  -3.7492  -3.7483   0.9846   0.9874   1.9076   1.9103
     3.7981   3.7982   5.0696   5.0712   5.2529   5.2549   5.5377   5.5378

          k = 0.7500 0.7500 0.0000 (  2512 PWs)   bands (ev):

  -100.2550-100.2550-100.1179 -99.9712 -60.4198 -60.4197 -60.2895 -60.2892
   -60.2382 -60.2002 -60.1999 -60.1799 -60.0927 -60.0681 -60.0568 -60.0227
    -5.1818  -3.8242  -3.8242  -3.4409   1.0262   1.4455   1.4456   3.0926
     3.9852   3.9855   4.0258   4.5495   4.5497   4.8432   5.5320   6.4382

          k = 0.7500 0.7500 0.2500 (  2494 PWs)   bands (ev):

  -100.1202-100.1202-100.1202-100.0019 -60.2561 -60.2548 -60.2547 -60.2179
   -60.1962 -60.1935 -60.1934 -60.0781 -60.0781 -60.0740 -60.0116 -60.0061
    -4.9849  -3.7839  -3.7838  -3.7832   1.2224   1.2245   1.2245   3.0415
     3.7854   3.7854   3.7857   5.0271   5.0271   5.0273   6.1443   6.1445

          k = 0.7500 0.7500 0.5000 (  2516 PWs)   bands (ev):

  -100.2798-100.2797-100.0569-100.0568 -60.4120 -60.4072 -60.3428 -60.3428
   -60.2701 -60.2661 -60.2268 -60.2220 -60.1147 -60.1107 -60.0087 -60.0087
    -4.4519  -4.4513  -3.7492  -3.7483   0.9846   0.9874   1.9076   1.9103
     3.7981   3.7982   5.0696   5.0712   5.2529   5.2549   5.5377   5.5378

          k = 0.7500 0.7500 0.7500 (  2494 PWs)   bands (ev):

  -100.1202-100.1202-100.1202-100.0019 -60.2571 -60.2571 -60.2557 -60.2125
   -60.1911 -60.1910 -60.1884 -60.0822 -60.0781 -60.0781 -60.0143 -60.0089
    -4.9852  -3.7838  -3.7832  -3.7832   1.2218   1.2219   1.2240   3.0436
     3.7873   3.7875   3.7875   5.0255   5.0271   5.0271   6.1426   6.1451

     highest occupied level (ev):     6.5548

!    total energy              =    -599.07516271 Ry
     estimated scf accuracy    <          3.0E-09 Ry

     The total energy is the sum of the following terms:
     one-electron contribution =    -412.42787231 Ry
     hartree contribution      =     173.81964769 Ry
     xc contribution           =     -73.84339716 Ry
     ewald contribution        =    -286.42828717 Ry

     convergence has been achieved in   8 iterations

     Forces acting on atoms (cartesian axes, Ry/au):

     atom    1 type  1   force =     0.00330731    0.00000051    0.00000056
     atom    2 type  1   force =     0.00330611   -0.00000063    0.00000042
     atom    3 type  1   force =     0.00330605    0.00000054   -0.00000049
     atom    4 type  1   force =     0.00330718   -0.00000053   -0.00000054
     atom    5 type  2   force =    -0.00330754   -0.00000032    0.00000037
     atom    6 type  2   force =    -0.00330587    0.00000033    0.00000035
     atom    7 type  2   force =    -0.00330573   -0.00000015   -0.00000032
     atom    8 type  2   force =    -0.00330751    0.00000025   -0.00000034
     The non-local contrib.  to forces
     atom    1 type  1   force =    -0.01608285   -0.00000178   -0.00000173
     atom    2 type  1   force =    -0.01607822    0.00000223   -0.00000236
     atom    3 type  1   force =    -0.01607840   -0.00000232    0.00000202
     atom    4 type  1   force =    -0.01608279    0.00000127    0.00000158
     atom    5 type  2   force =    -0.01163257   -0.00000020   -0.00000079
     atom    6 type  2   force =    -0.01163749   -0.00000101   -0.00000138
     atom    7 type  2   force =    -0.01163797   -0.00000048    0.00000017
     atom    8 type  2   force =    -0.01163226   -0.00000069    0.00000031
     The ionic contribution  to forces
     atom    1 type  1   force =     0.00000000    0.00000000   -0.00000000
     atom    2 type  1   force =     0.00000000   -0.00000000   -0.00000000
     atom    3 type  1   force =     0.00000000   -0.00000000   -0.00000000
     atom    4 type  1   force =    -0.00000000   -0.00000000   -0.00000000
     atom    5 type  2   force =     0.00000000    0.00000000   -0.00000000
     atom    6 type  2   force =     0.00000000    0.00000000   -0.00000000
     atom    7 type  2   force =     0.00000000    0.00000000    0.00000000
     atom    8 type  2   force =     0.00000000    0.00000000    0.00000000
     The local contribution  to forces
     atom    1 type  1   force =     0.00383191   -0.00000422   -0.00000462
     atom    2 type  1   force =     0.00384497    0.00000697   -0.00000636
     atom    3 type  1   force =     0.00384368   -0.00000734    0.00000432
     atom    4 type  1   force =     0.00383076    0.00000396    0.00000506
     atom    5 type  2   force =     0.00125323   -0.00000219    0.00000487
     atom    6 type  2   force =     0.00127939    0.00000392    0.00000583
     atom    7 type  2   force =     0.00128055   -0.00000092   -0.00000359
     atom    8 type  2   force =     0.00125358    0.00000358   -0.00000383
     The core correction contribution to forces
     atom    1 type  1   force =     0.00000000    0.00000000    0.00000000
     atom    2 type  1   force =     0.00000000    0.00000000    0.00000000
     atom    3 type  1   force =     0.00000000    0.00000000    0.00000000
     atom    4 type  1   force =     0.00000000    0.00000000    0.00000000
     atom    5 type  2   force =     0.00000000    0.00000000    0.00000000
     atom    6 type  2   force =     0.00000000    0.00000000    0.00000000
     atom    7 type  2   force =     0.00000000    0.00000000    0.00000000
     atom    8 type  2   force =     0.00000000    0.00000000    0.00000000
     The Hubbard contrib.    to forces
     atom    1 type  1   force =     0.00000000    0.00000000    0.00000000
     atom    2 type  1   force =     0.00000000    0.00000000    0.00000000
     atom    3 type  1   force =     0.00000000    0.00000000    0.00000000
     atom    4 type  1   force =     0.00000000    0.00000000    0.00000000
     atom    5 type  2   force =     0.00000000    0.00000000    0.00000000
     atom    6 type  2   force =     0.00000000    0.00000000    0.00000000
     atom    7 type  2   force =     0.00000000    0.00000000    0.00000000
     atom    8 type  2   force =     0.00000000    0.00000000    0.00000000
     The SCF correction term to forces
     atom    1 type  1   force =     0.00000953    0.00000653    0.00000694
     atom    2 type  1   force =    -0.00000936   -0.00000980    0.00000918
     atom    3 type  1   force =    -0.00000794    0.00001023   -0.00000680
     atom    4 type  1   force =     0.00001050   -0.00000574   -0.00000715
     atom    5 type  2   force =     0.00000837    0.00000208   -0.00000368
     atom    6 type  2   force =    -0.00001120   -0.00000255   -0.00000408
     atom    7 type  2   force =    -0.00001175    0.00000127    0.00000314
     atom    8 type  2   force =     0.00000774   -0.00000262    0.00000321

     Total force =     0.009353     Total SCF correction =     0.000036

     Writing all to output data dir ../tmp/alas.save/
 
     init_run     :      0.76s CPU      0.88s WALL (       1 calls)
     electrons    :    230.92s CPU    258.96s WALL (       1 calls)
     forces       :      0.42s CPU      0.46s WALL (       1 calls)

     Called by init_run:
     wfcinit      :      0.73s CPU      0.83s WALL (       1 calls)
     potinit      :      0.01s CPU      0.01s WALL (       1 calls)
     hinit0       :      0.02s CPU      0.03s WALL (       1 calls)

     Called by electrons:
     c_bands      :    192.87s CPU    217.03s WALL (      24 calls)
     sum_band     :      2.74s CPU      3.19s WALL (       8 calls)
     v_of_rho     :      0.06s CPU      0.07s WALL (       9 calls)
     mix_rho      :      0.01s CPU      0.01s WALL (       8 calls)

     Called by c_bands:
     init_us_2    :      1.16s CPU      1.21s WALL (    2176 calls)
     init_us_2:cp :      1.15s CPU      1.20s WALL (    2176 calls)
     cegterg      :    180.26s CPU    204.14s WALL (    1536 calls)

     Called by *egterg:
     cdiaghg      :      6.30s CPU      6.51s WALL (    3996 calls)
     h_psi        :    167.57s CPU    190.61s WALL (    4188 calls)
     g_psi        :      0.23s CPU      0.24s WALL (    2588 calls)

     Called by h_psi:
     h_psi:calbec :      3.20s CPU      3.70s WALL (    4188 calls)
     vloc_psi     :     32.43s CPU     38.45s WALL (    4188 calls)
     add_vuspsi   :      2.69s CPU      2.76s WALL (    4188 calls)

     General routines
     calbec       :      3.39s CPU      3.93s WALL (    4444 calls)
     fft          :      0.02s CPU      0.03s WALL (      91 calls)
     ffts         :      0.00s CPU      0.00s WALL (       8 calls)
     fftw         :     29.41s CPU     35.34s WALL (  245680 calls)
     davcio       :      0.01s CPU      0.01s WALL (     128 calls)
 
     Parallel routines

     Electric-field routines
     h_epsi_set   :     27.56s CPU     30.14s WALL (      24 calls)
     h_epsi_apply :    128.92s CPU    145.35s WALL (    4124 calls)
     c_phase_fiel :      7.68s CPU      8.52s WALL (      24 calls)
 
     PWSCF        :   3m52.27s CPU   4m20.60s WALL

 
   This run was terminated on:  19:31:41  15Apr2026            

=------------------------------------------------------------------------------=
   JOB DONE.
=------------------------------------------------------------------------------=
