
     Program PWSCF v.7.2 starts on 21Apr2026 at 18:35:36 

     This program is part of the open-source Quantum ESPRESSO suite
     for quantum simulation of materials; please cite
         "P. Giannozzi et al., J. Phys.:Condens. Matter 21 395502 (2009);
         "P. Giannozzi et al., J. Phys.:Condens. Matter 29 465901 (2017);
         "P. Giannozzi et al., J. Chem. Phys. 152 154105 (2020);
          URL http://www.quantum-espresso.org", 
     in publications or presentations arising from this work. More details at
     http://www.quantum-espresso.org/quote

     Parallel version (MPI & OpenMP), running on       4 processor cores
     Number of MPI processes:                 4
     Threads/MPI process:                     1

     MPI processes distributed on     1 nodes
     57833 MiB available memory on the printing compute node when the environment starts
 
     Waiting for input...
     Reading input from standard input

     Current dimensions of program PWSCF are:
     Max number of different atomic species (ntypx) = 10
     Max number of k-points (npk) =  40000
     Max angular momentum in pseudopotentials (lmaxx) =  4
     Found identity + ( -0.5000 -0.5000  0.0000) symmetry
     This is a supercell, fractional translations are disabled
 
     R & G space division:  proc/nbgrp/npool/nimage =       4
     Subspace diagonalization in iterative solution of the eigenvalue problem:
     a serial algorithm will be used

 
     Parallelization info
     --------------------
     sticks:   dense  smooth     PW     G-vecs:    dense   smooth      PW
     Min         358     358    109                10120    10120    1779
     Max         359     359    110                10123    10123    1784
     Sum        1433    1433    437                40483    40483    7123
 
     Using Slab Decomposition
 


     bravais-lattice index     =            1
     lattice parameter (alat)  =      10.5800  a.u.
     unit-cell volume          =    1184.2871 (a.u.)^3
     number of atoms/cell      =            8
     number of atomic types    =            2
     number of electrons       =        64.00
     number of Kohn-Sham states=           32
     kinetic-energy cutoff     =      40.0000  Ry
     charge density cutoff     =     160.0000  Ry
     scf convergence threshold =      1.0E-08
     mixing beta               =       0.5000
     number of iterations used =            8  plain     mixing
     Exchange-correlation= PBE
                           (   1   4   3   4   0   0   0)
 
     Using Berry phase electric field
     In a.u.(Ry)  cartesian system of reference
        0.0000000000
        0.0000000000
        0.0000000000
     In a.u.(Ry)  crystal system of reference
        0.0000000000
        0.0000000000
        0.0000000000
     Number of iterative cycles:   1
 

     celldm(1)=  10.580000  celldm(2)=   0.000000  celldm(3)=   0.000000
     celldm(4)=   0.000000  celldm(5)=   0.000000  celldm(6)=   0.000000

     crystal axes: (cart. coord. in units of alat)
               a(1) = (   1.000000   0.000000   0.000000 )  
               a(2) = (   0.000000   1.000000   0.000000 )  
               a(3) = (   0.000000   0.000000   1.000000 )  

     reciprocal axes: (cart. coord. in units 2 pi/alat)
               b(1) = (  1.000000  0.000000  0.000000 )  
               b(2) = (  0.000000  1.000000  0.000000 )  
               b(3) = (  0.000000  0.000000  1.000000 )  


     PseudoPot. # 1 for Al read from file:
     ../../pseudo/Al_ONCV_PBE-1.2.upf
     MD5 check sum: 2d9e7bc02555220d62fad08c3c4858e7
     Pseudo is Norm-conserving, Zval = 11.0
     Generated using ONCVPSP code by D. R. Hamann
     Using radial grid of  602 points,  4 beta functions with: 
                l(1) =   0
                l(2) =   0
                l(3) =   1
                l(4) =   1

     PseudoPot. # 2 for As read from file:
     ../../pseudo/As_ONCV_PBE-1.2.upf
     MD5 check sum: a2ff92a4799c87c945fff9e6739df4dd
     Pseudo is Norm-conserving, Zval =  5.0
     Generated using ONCVPSP code by D. R. Hamann
     Using radial grid of  602 points,  6 beta functions with: 
                l(1) =   0
                l(2) =   0
                l(3) =   1
                l(4) =   1
                l(5) =   2
                l(6) =   2

     atomic species   valence    mass     pseudopotential
        Al            11.00    26.98200     Al( 1.00)
        As             5.00    74.92200     As( 1.00)

     No symmetry found



   Cartesian axes

     site n.     atom                  positions (alat units)
         1           Al  tau(   1) = (  -0.1250000  -0.1250000  -0.1250000  )
         2           Al  tau(   2) = (   0.3750000   0.3750000  -0.1250000  )
         3           Al  tau(   3) = (   0.3750000  -0.1250000   0.3750000  )
         4           Al  tau(   4) = (  -0.1250000   0.3750000   0.3750000  )
         5           As  tau(   5) = (   0.1250000   0.1250000   0.1250000  )
         6           As  tau(   6) = (   0.6250000   0.6250000   0.1250000  )
         7           As  tau(   7) = (   0.6250000   0.1250000   0.6250000  )
         8           As  tau(   8) = (   0.1250000   0.6250000   0.6250000  )

     number of k points=    64
                       cart. coord. in units 2pi/alat
        k(    1) = (   0.0000000   0.0000000   0.0000000), wk =   0.0312500
        k(    2) = (   0.0000000   0.0000000   0.2500000), wk =   0.0312500
        k(    3) = (   0.0000000   0.0000000   0.5000000), wk =   0.0312500
        k(    4) = (   0.0000000   0.0000000   0.7500000), wk =   0.0312500
        k(    5) = (   0.0000000   0.2500000   0.0000000), wk =   0.0312500
        k(    6) = (   0.0000000   0.2500000   0.2500000), wk =   0.0312500
        k(    7) = (   0.0000000   0.2500000   0.5000000), wk =   0.0312500
        k(    8) = (   0.0000000   0.2500000   0.7500000), wk =   0.0312500
        k(    9) = (   0.0000000   0.5000000   0.0000000), wk =   0.0312500
        k(   10) = (   0.0000000   0.5000000   0.2500000), wk =   0.0312500
        k(   11) = (   0.0000000   0.5000000   0.5000000), wk =   0.0312500
        k(   12) = (   0.0000000   0.5000000   0.7500000), wk =   0.0312500
        k(   13) = (   0.0000000   0.7500000   0.0000000), wk =   0.0312500
        k(   14) = (   0.0000000   0.7500000   0.2500000), wk =   0.0312500
        k(   15) = (   0.0000000   0.7500000   0.5000000), wk =   0.0312500
        k(   16) = (   0.0000000   0.7500000   0.7500000), wk =   0.0312500
        k(   17) = (   0.2500000   0.0000000   0.0000000), wk =   0.0312500
        k(   18) = (   0.2500000   0.0000000   0.2500000), wk =   0.0312500
        k(   19) = (   0.2500000   0.0000000   0.5000000), wk =   0.0312500
        k(   20) = (   0.2500000   0.0000000   0.7500000), wk =   0.0312500
        k(   21) = (   0.2500000   0.2500000   0.0000000), wk =   0.0312500
        k(   22) = (   0.2500000   0.2500000   0.2500000), wk =   0.0312500
        k(   23) = (   0.2500000   0.2500000   0.5000000), wk =   0.0312500
        k(   24) = (   0.2500000   0.2500000   0.7500000), wk =   0.0312500
        k(   25) = (   0.2500000   0.5000000   0.0000000), wk =   0.0312500
        k(   26) = (   0.2500000   0.5000000   0.2500000), wk =   0.0312500
        k(   27) = (   0.2500000   0.5000000   0.5000000), wk =   0.0312500
        k(   28) = (   0.2500000   0.5000000   0.7500000), wk =   0.0312500
        k(   29) = (   0.2500000   0.7500000   0.0000000), wk =   0.0312500
        k(   30) = (   0.2500000   0.7500000   0.2500000), wk =   0.0312500
        k(   31) = (   0.2500000   0.7500000   0.5000000), wk =   0.0312500
        k(   32) = (   0.2500000   0.7500000   0.7500000), wk =   0.0312500
        k(   33) = (   0.5000000   0.0000000   0.0000000), wk =   0.0312500
        k(   34) = (   0.5000000   0.0000000   0.2500000), wk =   0.0312500
        k(   35) = (   0.5000000   0.0000000   0.5000000), wk =   0.0312500
        k(   36) = (   0.5000000   0.0000000   0.7500000), wk =   0.0312500
        k(   37) = (   0.5000000   0.2500000   0.0000000), wk =   0.0312500
        k(   38) = (   0.5000000   0.2500000   0.2500000), wk =   0.0312500
        k(   39) = (   0.5000000   0.2500000   0.5000000), wk =   0.0312500
        k(   40) = (   0.5000000   0.2500000   0.7500000), wk =   0.0312500
        k(   41) = (   0.5000000   0.5000000   0.0000000), wk =   0.0312500
        k(   42) = (   0.5000000   0.5000000   0.2500000), wk =   0.0312500
        k(   43) = (   0.5000000   0.5000000   0.5000000), wk =   0.0312500
        k(   44) = (   0.5000000   0.5000000   0.7500000), wk =   0.0312500
        k(   45) = (   0.5000000   0.7500000   0.0000000), wk =   0.0312500
        k(   46) = (   0.5000000   0.7500000   0.2500000), wk =   0.0312500
        k(   47) = (   0.5000000   0.7500000   0.5000000), wk =   0.0312500
        k(   48) = (   0.5000000   0.7500000   0.7500000), wk =   0.0312500
        k(   49) = (   0.7500000   0.0000000   0.0000000), wk =   0.0312500
        k(   50) = (   0.7500000   0.0000000   0.2500000), wk =   0.0312500
        k(   51) = (   0.7500000   0.0000000   0.5000000), wk =   0.0312500
        k(   52) = (   0.7500000   0.0000000   0.7500000), wk =   0.0312500
        k(   53) = (   0.7500000   0.2500000   0.0000000), wk =   0.0312500
        k(   54) = (   0.7500000   0.2500000   0.2500000), wk =   0.0312500
        k(   55) = (   0.7500000   0.2500000   0.5000000), wk =   0.0312500
        k(   56) = (   0.7500000   0.2500000   0.7500000), wk =   0.0312500
        k(   57) = (   0.7500000   0.5000000   0.0000000), wk =   0.0312500
        k(   58) = (   0.7500000   0.5000000   0.2500000), wk =   0.0312500
        k(   59) = (   0.7500000   0.5000000   0.5000000), wk =   0.0312500
        k(   60) = (   0.7500000   0.5000000   0.7500000), wk =   0.0312500
        k(   61) = (   0.7500000   0.7500000   0.0000000), wk =   0.0312500
        k(   62) = (   0.7500000   0.7500000   0.2500000), wk =   0.0312500
        k(   63) = (   0.7500000   0.7500000   0.5000000), wk =   0.0312500
        k(   64) = (   0.7500000   0.7500000   0.7500000), wk =   0.0312500

     Dense  grid:    40483 G-vectors     FFT dimensions: (  45,  45,  45)

     Estimated max dynamical RAM per process >      53.05 MB

     Estimated total dynamical RAM >     212.19 MB

     Initial potential from superposition of free atoms

     starting charge      63.5461, renormalised to      64.0000
     Starting wfcs are random

     total cpu time spent up to now is        0.8 secs

     Self-consistent Calculation

     iteration #  1     ecut=    40.00 Ry     beta= 0.50
     Davidson diagonalization with overlap
     ethr =  1.00E-02,  avg # of iterations =  8.2

     Threshold (ethr) on eigenvalues was too large:
     Diagonalizing with lowered threshold

     Davidson diagonalization with overlap
     ethr =  5.84E-04,  avg # of iterations =  2.4
 
     Expectation value of exp(iGx): (0.191985443625355,-5.452637342564506E-005)
   1.00000000000000     
     Electronic Dipole per cell (Ry a.u.) -1.352661387518490E-003
     Ionic Dipole per cell (Ry a.u.)   194.510933368796     
 
     Expectation value of exp(iGx): (0.191851247125830,3.443264208610611E-005)
   1.00000000000000     
     Electronic Dipole per cell (Ry a.u.)  8.547842468441430E-004
     Ionic Dipole per cell (Ry a.u.)   194.510933368795     
 
     Expectation value of exp(iGx): (0.191963335458155,3.128703722866568E-004)
   1.00000000000000     
     Electronic Dipole per cell (Ry a.u.)  7.762409677704866E-003
     Ionic Dipole per cell (Ry a.u.)   194.510933368796     
Electronic Dipole on Cartesian axes
           1 -1.352661387518490E-003
           2  8.547842468441430E-004
           3  7.762409677704866E-003
Ionic Dipole on Cartesian axes
           1   194.510933368796     
           2   194.510933368795     
           3   194.510933368796     

     total cpu time spent up to now is        9.9 secs

     total energy              =    -604.36904714 Ry
     estimated scf accuracy    <       0.35451329 Ry

     iteration #  2     ecut=    40.00 Ry     beta= 0.50
     Davidson diagonalization with overlap
     ethr =  5.54E-04,  avg # of iterations =  2.0
 
     Expectation value of exp(iGx): (0.175902862707128,6.471914588567569E-005)
   1.00000000000000     
     Electronic Dipole per cell (Ry a.u.)  1.752308804207917E-003
     Ionic Dipole per cell (Ry a.u.)   194.510933368796     
 
     Expectation value of exp(iGx): (0.175876174986616,-4.676572034425684E-005)
   1.00000000000000     
     Electronic Dipole per cell (Ry a.u.) -1.266401449711798E-003
     Ionic Dipole per cell (Ry a.u.)   194.510933368795     
 
     Expectation value of exp(iGx): (0.175900401544907,1.717093152670521E-004)
   1.00000000000000     
     Electronic Dipole per cell (Ry a.u.)  4.649194125650397E-003
     Ionic Dipole per cell (Ry a.u.)   194.510933368796     
Electronic Dipole on Cartesian axes
           1  1.752308804207917E-003
           2 -1.266401449711798E-003
           3  4.649194125650397E-003
Ionic Dipole on Cartesian axes
           1   194.510933368796     
           2   194.510933368795     
           3   194.510933368796     

     total cpu time spent up to now is       13.0 secs

     total energy              =    -604.41918179 Ry
     estimated scf accuracy    <       0.02945902 Ry

     iteration #  3     ecut=    40.00 Ry     beta= 0.50
     Davidson diagonalization with overlap
     ethr =  4.60E-05,  avg # of iterations =  2.1
 
     Expectation value of exp(iGx): (0.172875286348197,-1.551716606484031E-006)
   1.00000000000000     
     Electronic Dipole per cell (Ry a.u.) -4.274942605236217E-005
     Ionic Dipole per cell (Ry a.u.)   194.510933368796     
 
     Expectation value of exp(iGx): (0.172868328009571,-1.842273191298284E-005)
   1.00000000000000     
     Electronic Dipole per cell (Ry a.u.) -5.075623412505291E-004
     Ionic Dipole per cell (Ry a.u.)   194.510933368795     
 
     Expectation value of exp(iGx): (0.172854061966024,-3.771695323505765E-005)
   1.00000000000000     
     Electronic Dipole per cell (Ry a.u.) -1.039220725890429E-003
     Ionic Dipole per cell (Ry a.u.)   194.510933368796     
Electronic Dipole on Cartesian axes
           1 -4.274942605236217E-005
           2 -5.075623412505291E-004
           3 -1.039220725890429E-003
Ionic Dipole on Cartesian axes
           1   194.510933368796     
           2   194.510933368795     
           3   194.510933368796     

     total cpu time spent up to now is       15.9 secs

     total energy              =    -604.42059151 Ry
     estimated scf accuracy    <       0.00522536 Ry

     iteration #  4     ecut=    40.00 Ry     beta= 0.50
     Davidson diagonalization with overlap
     ethr =  8.16E-06,  avg # of iterations =  1.9
 
     Expectation value of exp(iGx): (0.172535611202832,1.784126590097571E-005)
   1.00000000000000     
     Electronic Dipole per cell (Ry a.u.)  4.924903332826735E-004
     Ionic Dipole per cell (Ry a.u.)   194.510933368796     
 
     Expectation value of exp(iGx): (0.172521360734238,-7.479476138057923E-006)
   1.00000000000000     
     Electronic Dipole per cell (Ry a.u.) -2.064805263537766E-004
     Ionic Dipole per cell (Ry a.u.)   194.510933368795     
 
     Expectation value of exp(iGx): (0.172521893078617,-1.162894456849944E-005)
   1.00000000000000     
     Electronic Dipole per cell (Ry a.u.) -3.210309304887986E-004
     Ionic Dipole per cell (Ry a.u.)   194.510933368796     
Electronic Dipole on Cartesian axes
           1  4.924903332826735E-004
           2 -2.064805263537766E-004
           3 -3.210309304887986E-004
Ionic Dipole on Cartesian axes
           1   194.510933368796     
           2   194.510933368795     
           3   194.510933368796     

     total cpu time spent up to now is       18.7 secs

     total energy              =    -604.42084939 Ry
     estimated scf accuracy    <       0.00002598 Ry

     iteration #  5     ecut=    40.00 Ry     beta= 0.50
     Davidson diagonalization with overlap
     ethr =  4.06E-08,  avg # of iterations =  5.2
 
     Expectation value of exp(iGx): (0.171983842629060,2.646437289253664E-006)
   1.00000000000000     
     Electronic Dipole per cell (Ry a.u.)  7.328663005192016E-005
     Ionic Dipole per cell (Ry a.u.)   194.510933368796     
 
     Expectation value of exp(iGx): (0.171983253145083,-1.139037692720517E-006)
   1.00000000000000     
     Electronic Dipole per cell (Ry a.u.) -3.154298062011631E-005
     Ionic Dipole per cell (Ry a.u.)   194.510933368795     
 
     Expectation value of exp(iGx): (0.171984007403435,4.421494989078917E-006)
   1.00000000000000     
     Electronic Dipole per cell (Ry a.u.)  1.224424090297684E-004
     Ionic Dipole per cell (Ry a.u.)   194.510933368796     
Electronic Dipole on Cartesian axes
           1  7.328663005192016E-005
           2 -3.154298062011631E-005
           3  1.224424090297684E-004
Ionic Dipole on Cartesian axes
           1   194.510933368796     
           2   194.510933368795     
           3   194.510933368796     

     total cpu time spent up to now is       22.8 secs

     total energy              =    -604.42088251 Ry
     estimated scf accuracy    <       0.00000428 Ry

     iteration #  6     ecut=    40.00 Ry     beta= 0.50
     Davidson diagonalization with overlap
     ethr =  6.68E-09,  avg # of iterations =  2.0
 
     Expectation value of exp(iGx): (0.172007078766564,1.767942772396350E-007)
   1.00000000000000     
     Electronic Dipole per cell (Ry a.u.)  4.895225196807547E-006
     Ionic Dipole per cell (Ry a.u.)   194.510933368796     
 
     Expectation value of exp(iGx): (0.172007021819318,-4.572718959781029E-007)
   1.00000000000000     
     Electronic Dipole per cell (Ry a.u.) -1.266132412781060E-005
     Ionic Dipole per cell (Ry a.u.)   194.510933368795     
 
     Expectation value of exp(iGx): (0.172007122064501,-1.474429574173548E-006)
   1.00000000000000     
     Electronic Dipole per cell (Ry a.u.) -4.082520711689319E-005
     Ionic Dipole per cell (Ry a.u.)   194.510933368796     
Electronic Dipole on Cartesian axes
           1  4.895225196807547E-006
           2 -1.266132412781060E-005
           3 -4.082520711689319E-005
Ionic Dipole on Cartesian axes
           1   194.510933368796     
           2   194.510933368795     
           3   194.510933368796     

     total cpu time spent up to now is       26.1 secs

     total energy              =    -604.42088290 Ry
     estimated scf accuracy    <       0.00000059 Ry

     iteration #  7     ecut=    40.00 Ry     beta= 0.50
     Davidson diagonalization with overlap
     ethr =  9.27E-10,  avg # of iterations =  2.0
 
     Expectation value of exp(iGx): (0.172030898991379,-4.640132041091802E-007)
   1.00000000000000     
     Electronic Dipole per cell (Ry a.u.) -1.284619982105391E-005
     Ionic Dipole per cell (Ry a.u.)   194.510933368796     
 
     Expectation value of exp(iGx): (0.172030862068376,-6.097198099164723E-007)
   1.00000000000000     
     Electronic Dipole per cell (Ry a.u.) -1.688008902499882E-005
     Ionic Dipole per cell (Ry a.u.)   194.510933368795     
 
     Expectation value of exp(iGx): (0.172030898439809,-1.066719599031492E-006)
   1.00000000000000     
     Electronic Dipole per cell (Ry a.u.) -2.953211901006448E-005
     Ionic Dipole per cell (Ry a.u.)   194.510933368796     
Electronic Dipole on Cartesian axes
           1 -1.284619982105391E-005
           2 -1.688008902499882E-005
           3 -2.953211901006448E-005
Ionic Dipole on Cartesian axes
           1   194.510933368796     
           2   194.510933368795     
           3   194.510933368796     

     total cpu time spent up to now is       29.3 secs

     total energy              =    -604.42088302 Ry
     estimated scf accuracy    <       0.00000004 Ry

     iteration #  8     ecut=    40.00 Ry     beta= 0.50
     Davidson diagonalization with overlap
     ethr =  5.59E-11,  avg # of iterations =  2.2
 
     Expectation value of exp(iGx): (0.172037898654722,-5.891590914837517E-007)
   1.00000000000000     
     Electronic Dipole per cell (Ry a.u.) -1.631019853032853E-005
     Ionic Dipole per cell (Ry a.u.)   194.510933368796     
 
     Expectation value of exp(iGx): (0.172037882427110,-7.165773794853662E-007)
   1.00000000000000     
     Electronic Dipole per cell (Ry a.u.) -1.983763060454217E-005
     Ionic Dipole per cell (Ry a.u.)   194.510933368795     
 
     Expectation value of exp(iGx): (0.172037900735695,-6.156238215031685E-007)
   1.00000000000000     
     Electronic Dipole per cell (Ry a.u.) -1.704284423748182E-005
     Ionic Dipole per cell (Ry a.u.)   194.510933368796     
Electronic Dipole on Cartesian axes
           1 -1.631019853032853E-005
           2 -1.983763060454217E-005
           3 -1.704284423748182E-005
Ionic Dipole on Cartesian axes
           1   194.510933368796     
           2   194.510933368795     
           3   194.510933368796     

     total cpu time spent up to now is       32.4 secs

     End of self-consistent calculation

          k = 0.0000 0.0000 0.0000 (  5041 PWs)   bands (ev):

   -96.5251 -96.5249 -96.5249 -96.5026 -58.1339 -58.1339 -58.1338 -58.1337
   -58.1337 -58.1337 -58.1316 -58.1316 -58.1316 -58.1309 -58.1309 -58.1309
    -5.7205  -3.6358  -3.6358  -3.6358   0.7763   0.7763   0.7764   4.0793
     4.0793   4.0793   4.0793   4.0794   4.0794   6.3316   6.3316   6.3316

          k = 0.0000 0.0000 0.2500 (  5069 PWs)   bands (ev):

   -96.5394 -96.5261 -96.5208 -96.5207 -58.1350 -58.1338 -58.1338 -58.1332
   -58.1331 -58.1331 -58.1331 -58.1330 -58.1330 -58.1320 -58.1320 -58.1320
    -5.5079  -4.0991  -3.6182  -3.6182   0.9345   0.9346   1.5037   3.5335
     3.5336   3.6906   3.6906   4.3025   4.3025   4.9650   5.8102   5.8102

          k = 0.0000 0.0000 0.5000 (  5078 PWs)   bands (ev):

   -96.5444 -96.5443 -96.5147 -96.5147 -58.1348 -58.1348 -58.1348 -58.1348
   -58.1338 -58.1336 -58.1328 -58.1328 -58.1327 -58.1327 -58.1316 -58.1315
    -4.9075  -4.9075  -3.6002  -3.6002   1.1442   1.1443   3.0237   3.0237
     3.0914   3.0914   3.3901   3.3901   4.9352   4.9352   4.9353   4.9353

          k = 0.0000 0.0000 0.7500 (  5069 PWs)   bands (ev):

   -96.5394 -96.5261 -96.5208 -96.5207 -58.1350 -58.1338 -58.1338 -58.1332
   -58.1331 -58.1331 -58.1331 -58.1330 -58.1330 -58.1320 -58.1320 -58.1320
    -5.5079  -4.0991  -3.6182  -3.6182   0.9345   0.9346   1.5037   3.5335
     3.5336   3.6906   3.6906   4.3025   4.3025   4.9650   5.8102   5.8102

          k = 0.0000 0.2500 0.0000 (  5069 PWs)   bands (ev):

   -96.5394 -96.5261 -96.5208 -96.5207 -58.1350 -58.1338 -58.1338 -58.1332
   -58.1332 -58.1331 -58.1331 -58.1330 -58.1330 -58.1320 -58.1320 -58.1320
    -5.5079  -4.0991  -3.6182  -3.6182   0.9345   0.9346   1.5037   3.5335
     3.5336   3.6906   3.6906   4.3025   4.3025   4.9650   5.8102   5.8102

          k = 0.0000 0.2500 0.2500 (  5047 PWs)   bands (ev):

   -96.5347 -96.5189 -96.5149 -96.5147 -58.1338 -58.1332 -58.1332 -58.1329
   -58.1329 -58.1329 -58.1328 -58.1327 -58.1326 -58.1324 -58.1310 -58.1310
    -5.3050  -4.0126  -4.0126  -3.6675   1.0488   1.4256   1.4256   2.7793
     3.6795   3.6796   3.8583   4.2119   4.2120   4.4648   5.2305   6.1638

          k = 0.0000 0.2500 0.5000 (  5066 PWs)   bands (ev):

   -96.5350 -96.5349 -96.5164 -96.5163 -58.1341 -58.1341 -58.1338 -58.1337
   -58.1332 -58.1331 -58.1328 -58.1328 -58.1325 -58.1325 -58.1318 -58.1318
    -4.7427  -4.7427  -3.8215  -3.8215   1.2439   1.2439   2.5100   2.5100
     2.8501   2.8501   4.3016   4.3016   4.3712   4.3712   5.3208   5.3208

          k = 0.0000 0.2500 0.7500 (  5047 PWs)   bands (ev):

   -96.5347 -96.5189 -96.5149 -96.5147 -58.1338 -58.1332 -58.1332 -58.1329
   -58.1329 -58.1329 -58.1328 -58.1327 -58.1326 -58.1324 -58.1310 -58.1310
    -5.3050  -4.0126  -4.0126  -3.6675   1.0488   1.4256   1.4256   2.7793
     3.6795   3.6796   3.8583   4.2119   4.2120   4.4648   5.2305   6.1638

          k = 0.0000 0.5000 0.0000 (  5078 PWs)   bands (ev):

   -96.5444 -96.5443 -96.5148 -96.5146 -58.1348 -58.1348 -58.1348 -58.1348
   -58.1338 -58.1336 -58.1328 -58.1328 -58.1327 -58.1327 -58.1317 -58.1315
    -4.9075  -4.9075  -3.6002  -3.6002   1.1443   1.1443   3.0237   3.0237
     3.0914   3.0914   3.3901   3.3901   4.9352   4.9352   4.9352   4.9353

          k = 0.0000 0.5000 0.2500 (  5066 PWs)   bands (ev):

   -96.5350 -96.5349 -96.5164 -96.5163 -58.1341 -58.1341 -58.1338 -58.1336
   -58.1332 -58.1331 -58.1328 -58.1328 -58.1326 -58.1325 -58.1319 -58.1317
    -4.7427  -4.7427  -3.8215  -3.8215   1.2439   1.2439   2.5100   2.5100
     2.8501   2.8501   4.3016   4.3016   4.3712   4.3712   5.3208   5.3208

          k = 0.0000 0.5000 0.5000 (  5056 PWs)   bands (ev):

   -96.5223 -96.5221 -96.5221 -96.5220 -58.1334 -58.1333 -58.1332 -58.1331
   -58.1329 -58.1329 -58.1328 -58.1327 -58.1318 -58.1318 -58.1317 -58.1316
    -4.3106  -4.3106  -4.3105  -4.3105   1.6953   1.6953   1.6954   1.6954
     3.3528   3.3529   3.3529   3.3529   5.4024   5.4024   5.4024   5.4024

          k = 0.0000 0.5000 0.7500 (  5066 PWs)   bands (ev):

   -96.5350 -96.5349 -96.5164 -96.5163 -58.1341 -58.1341 -58.1338 -58.1336
   -58.1332 -58.1331 -58.1328 -58.1328 -58.1326 -58.1325 -58.1319 -58.1317
    -4.7427  -4.7427  -3.8215  -3.8215   1.2439   1.2439   2.5100   2.5100
     2.8501   2.8501   4.3016   4.3016   4.3712   4.3712   5.3208   5.3208

          k = 0.0000 0.7500 0.0000 (  5069 PWs)   bands (ev):

   -96.5394 -96.5261 -96.5208 -96.5207 -58.1350 -58.1338 -58.1338 -58.1332
   -58.1332 -58.1331 -58.1331 -58.1330 -58.1330 -58.1320 -58.1320 -58.1320
    -5.5079  -4.0991  -3.6182  -3.6182   0.9345   0.9346   1.5037   3.5335
     3.5336   3.6906   3.6906   4.3025   4.3025   4.9650   5.8102   5.8102

          k = 0.0000 0.7500 0.2500 (  5047 PWs)   bands (ev):

   -96.5347 -96.5189 -96.5149 -96.5147 -58.1338 -58.1332 -58.1332 -58.1329
   -58.1329 -58.1329 -58.1328 -58.1327 -58.1326 -58.1324 -58.1310 -58.1310
    -5.3050  -4.0126  -4.0126  -3.6675   1.0488   1.4256   1.4256   2.7793
     3.6795   3.6796   3.8583   4.2119   4.2120   4.4648   5.2305   6.1638

          k = 0.0000 0.7500 0.5000 (  5066 PWs)   bands (ev):

   -96.5350 -96.5349 -96.5164 -96.5163 -58.1341 -58.1341 -58.1338 -58.1337
   -58.1332 -58.1331 -58.1328 -58.1328 -58.1325 -58.1325 -58.1318 -58.1318
    -4.7427  -4.7427  -3.8215  -3.8215   1.2439   1.2439   2.5100   2.5100
     2.8501   2.8501   4.3016   4.3016   4.3712   4.3712   5.3208   5.3208

          k = 0.0000 0.7500 0.7500 (  5047 PWs)   bands (ev):

   -96.5347 -96.5189 -96.5149 -96.5147 -58.1338 -58.1332 -58.1332 -58.1329
   -58.1329 -58.1329 -58.1328 -58.1327 -58.1326 -58.1324 -58.1310 -58.1310
    -5.3050  -4.0126  -4.0126  -3.6675   1.0488   1.4256   1.4256   2.7793
     3.6795   3.6796   3.8583   4.2119   4.2120   4.4648   5.2305   6.1638

          k = 0.2500 0.0000 0.0000 (  5069 PWs)   bands (ev):

   -96.5394 -96.5261 -96.5208 -96.5206 -58.1350 -58.1338 -58.1338 -58.1332
   -58.1332 -58.1331 -58.1331 -58.1331 -58.1330 -58.1320 -58.1320 -58.1320
    -5.5079  -4.0991  -3.6182  -3.6182   0.9346   0.9346   1.5037   3.5335
     3.5335   3.6906   3.6906   4.3025   4.3025   4.9650   5.8102   5.8102

          k = 0.2500 0.0000 0.2500 (  5047 PWs)   bands (ev):

   -96.5347 -96.5189 -96.5149 -96.5147 -58.1338 -58.1332 -58.1331 -58.1329
   -58.1329 -58.1328 -58.1328 -58.1327 -58.1326 -58.1324 -58.1310 -58.1310
    -5.3050  -4.0126  -4.0126  -3.6675   1.0488   1.4256   1.4257   2.7793
     3.6795   3.6796   3.8583   4.2119   4.2120   4.4648   5.2305   6.1638

          k = 0.2500 0.0000 0.5000 (  5066 PWs)   bands (ev):

   -96.5350 -96.5349 -96.5164 -96.5163 -58.1341 -58.1341 -58.1338 -58.1337
   -58.1332 -58.1331 -58.1328 -58.1328 -58.1325 -58.1325 -58.1318 -58.1318
    -4.7427  -4.7427  -3.8215  -3.8215   1.2439   1.2439   2.5100   2.5100
     2.8501   2.8501   4.3016   4.3016   4.3712   4.3712   5.3208   5.3208

          k = 0.2500 0.0000 0.7500 (  5047 PWs)   bands (ev):

   -96.5347 -96.5189 -96.5149 -96.5147 -58.1338 -58.1332 -58.1332 -58.1329
   -58.1329 -58.1328 -58.1328 -58.1327 -58.1326 -58.1324 -58.1310 -58.1310
    -5.3050  -4.0126  -4.0126  -3.6675   1.0488   1.4256   1.4256   2.7793
     3.6795   3.6796   3.8583   4.2119   4.2120   4.4648   5.2305   6.1638

          k = 0.2500 0.2500 0.0000 (  5047 PWs)   bands (ev):

   -96.5347 -96.5189 -96.5148 -96.5148 -58.1338 -58.1332 -58.1331 -58.1329
   -58.1329 -58.1328 -58.1328 -58.1327 -58.1326 -58.1324 -58.1310 -58.1310
    -5.3050  -4.0126  -4.0126  -3.6675   1.0488   1.4256   1.4257   2.7793
     3.6795   3.6796   3.8583   4.2119   4.2120   4.4648   5.2305   6.1638

          k = 0.2500 0.2500 0.2500 (  5070 PWs)   bands (ev):

   -96.5371 -96.5232 -96.5231 -96.5230 -58.1337 -58.1337 -58.1336 -58.1336
   -58.1336 -58.1335 -58.1334 -58.1333 -58.1333 -58.1317 -58.1317 -58.1316
    -5.1164  -3.9783  -3.9783  -3.9782   1.1720   1.1720   1.1721   2.8796
     3.5051   3.5051   3.5052   4.6573   4.6573   4.6573   5.8354   5.8354

          k = 0.2500 0.2500 0.5000 (  5088 PWs)   bands (ev):

   -96.5399 -96.5398 -96.5230 -96.5229 -58.1346 -58.1346 -58.1341 -58.1341
   -58.1340 -58.1339 -58.1337 -58.1336 -58.1329 -58.1329 -58.1317 -58.1317
    -4.6047  -4.6047  -3.9423  -3.9423   0.9389   0.9390   1.7799   1.7799
     3.5533   3.5533   4.7295   4.7295   4.9728   4.9729   5.1836   5.1836

          k = 0.2500 0.2500 0.7500 (  5070 PWs)   bands (ev):

   -96.5371 -96.5232 -96.5231 -96.5230 -58.1337 -58.1337 -58.1336 -58.1336
   -58.1336 -58.1335 -58.1334 -58.1333 -58.1333 -58.1317 -58.1317 -58.1316
    -5.1164  -3.9783  -3.9783  -3.9782   1.1720   1.1720   1.1720   2.8796
     3.5051   3.5051   3.5052   4.6573   4.6573   4.6574   5.8354   5.8354

          k = 0.2500 0.5000 0.0000 (  5066 PWs)   bands (ev):

   -96.5350 -96.5349 -96.5164 -96.5163 -58.1341 -58.1341 -58.1338 -58.1336
   -58.1332 -58.1331 -58.1328 -58.1327 -58.1326 -58.1325 -58.1319 -58.1317
    -4.7427  -4.7427  -3.8215  -3.8215   1.2439   1.2439   2.5100   2.5100
     2.8501   2.8501   4.3016   4.3016   4.3712   4.3712   5.3208   5.3208

          k = 0.2500 0.5000 0.2500 (  5088 PWs)   bands (ev):

   -96.5399 -96.5398 -96.5230 -96.5229 -58.1346 -58.1346 -58.1341 -58.1341
   -58.1340 -58.1339 -58.1337 -58.1336 -58.1329 -58.1329 -58.1317 -58.1317
    -4.6047  -4.6047  -3.9423  -3.9423   0.9389   0.9390   1.7799   1.7799
     3.5533   3.5533   4.7295   4.7295   4.9728   4.9729   5.1836   5.1836

          k = 0.2500 0.5000 0.5000 (  5048 PWs)   bands (ev):

   -96.5203 -96.5201 -96.5201 -96.5201 -58.1333 -58.1333 -58.1332 -58.1331
   -58.1331 -58.1330 -58.1329 -58.1329 -58.1313 -58.1313 -58.1313 -58.1312
    -4.2665  -4.2665  -4.2665  -4.2665   1.0248   1.0248   1.0249   1.0249
     4.4353   4.4353   4.4353   4.4354   5.4405   5.4405   5.4406   5.4406

          k = 0.2500 0.5000 0.7500 (  5088 PWs)   bands (ev):

   -96.5399 -96.5398 -96.5230 -96.5229 -58.1346 -58.1346 -58.1341 -58.1340
   -58.1340 -58.1339 -58.1337 -58.1336 -58.1329 -58.1329 -58.1317 -58.1317
    -4.6047  -4.6047  -3.9423  -3.9423   0.9390   0.9390   1.7799   1.7799
     3.5533   3.5533   4.7295   4.7295   4.9728   4.9729   5.1836   5.1836

          k = 0.2500 0.7500 0.0000 (  5047 PWs)   bands (ev):

   -96.5347 -96.5189 -96.5148 -96.5148 -58.1338 -58.1332 -58.1331 -58.1329
   -58.1329 -58.1328 -58.1328 -58.1327 -58.1326 -58.1324 -58.1310 -58.1310
    -5.3050  -4.0126  -4.0126  -3.6675   1.0488   1.4256   1.4256   2.7793
     3.6795   3.6796   3.8583   4.2119   4.2120   4.4648   5.2305   6.1638

          k = 0.2500 0.7500 0.2500 (  5070 PWs)   bands (ev):

   -96.5371 -96.5232 -96.5231 -96.5230 -58.1337 -58.1337 -58.1336 -58.1336
   -58.1336 -58.1335 -58.1334 -58.1333 -58.1333 -58.1317 -58.1317 -58.1316
    -5.1164  -3.9783  -3.9783  -3.9782   1.1720   1.1720   1.1720   2.8796
     3.5051   3.5051   3.5052   4.6573   4.6573   4.6574   5.8354   5.8354

          k = 0.2500 0.7500 0.5000 (  5088 PWs)   bands (ev):

   -96.5399 -96.5398 -96.5230 -96.5229 -58.1346 -58.1346 -58.1341 -58.1341
   -58.1340 -58.1340 -58.1337 -58.1336 -58.1329 -58.1329 -58.1317 -58.1317
    -4.6047  -4.6047  -3.9423  -3.9423   0.9390   0.9390   1.7799   1.7799
     3.5533   3.5533   4.7295   4.7295   4.9728   4.9729   5.1836   5.1836

          k = 0.2500 0.7500 0.7500 (  5070 PWs)   bands (ev):

   -96.5371 -96.5232 -96.5231 -96.5230 -58.1337 -58.1337 -58.1336 -58.1336
   -58.1336 -58.1335 -58.1334 -58.1333 -58.1333 -58.1317 -58.1317 -58.1316
    -5.1164  -3.9783  -3.9782  -3.9782   1.1720   1.1720   1.1720   2.8796
     3.5051   3.5052   3.5052   4.6573   4.6573   4.6574   5.8354   5.8354

          k = 0.5000 0.0000 0.0000 (  5078 PWs)   bands (ev):

   -96.5444 -96.5443 -96.5148 -96.5146 -58.1349 -58.1349 -58.1347 -58.1347
   -58.1338 -58.1336 -58.1328 -58.1328 -58.1327 -58.1327 -58.1317 -58.1315
    -4.9075  -4.9075  -3.6002  -3.6002   1.1443   1.1443   3.0237   3.0237
     3.0914   3.0914   3.3901   3.3901   4.9352   4.9352   4.9352   4.9353

          k = 0.5000 0.0000 0.2500 (  5066 PWs)   bands (ev):

   -96.5350 -96.5349 -96.5164 -96.5163 -58.1342 -58.1340 -58.1338 -58.1336
   -58.1332 -58.1331 -58.1328 -58.1327 -58.1326 -58.1325 -58.1319 -58.1317
    -4.7427  -4.7427  -3.8215  -3.8215   1.2439   1.2439   2.5100   2.5100
     2.8501   2.8501   4.3016   4.3016   4.3712   4.3712   5.3208   5.3208

          k = 0.5000 0.0000 0.5000 (  5056 PWs)   bands (ev):

   -96.5223 -96.5221 -96.5221 -96.5220 -58.1334 -58.1332 -58.1332 -58.1331
   -58.1329 -58.1329 -58.1328 -58.1328 -58.1318 -58.1318 -58.1317 -58.1317
    -4.3106  -4.3106  -4.3105  -4.3105   1.6953   1.6953   1.6954   1.6954
     3.3528   3.3529   3.3529   3.3529   5.4024   5.4024   5.4024   5.4024

          k = 0.5000 0.0000 0.7500 (  5066 PWs)   bands (ev):

   -96.5350 -96.5349 -96.5164 -96.5163 -58.1342 -58.1340 -58.1338 -58.1336
   -58.1332 -58.1331 -58.1328 -58.1327 -58.1326 -58.1325 -58.1319 -58.1317
    -4.7427  -4.7427  -3.8215  -3.8215   1.2439   1.2439   2.5100   2.5100
     2.8501   2.8501   4.3016   4.3016   4.3712   4.3712   5.3208   5.3208

          k = 0.5000 0.2500 0.0000 (  5066 PWs)   bands (ev):

   -96.5350 -96.5349 -96.5164 -96.5163 -58.1342 -58.1340 -58.1338 -58.1336
   -58.1332 -58.1331 -58.1328 -58.1327 -58.1326 -58.1325 -58.1319 -58.1317
    -4.7427  -4.7427  -3.8215  -3.8215   1.2439   1.2439   2.5100   2.5100
     2.8501   2.8501   4.3016   4.3016   4.3712   4.3712   5.3208   5.3208

          k = 0.5000 0.2500 0.2500 (  5088 PWs)   bands (ev):

   -96.5400 -96.5398 -96.5230 -96.5229 -58.1346 -58.1346 -58.1341 -58.1341
   -58.1340 -58.1339 -58.1337 -58.1336 -58.1330 -58.1329 -58.1318 -58.1317
    -4.6047  -4.6046  -3.9423  -3.9423   0.9389   0.9390   1.7799   1.7799
     3.5533   3.5533   4.7295   4.7295   4.9728   4.9729   5.1836   5.1836

          k = 0.5000 0.2500 0.5000 (  5048 PWs)   bands (ev):

   -96.5203 -96.5201 -96.5201 -96.5201 -58.1333 -58.1333 -58.1332 -58.1332
   -58.1331 -58.1329 -58.1329 -58.1329 -58.1313 -58.1313 -58.1313 -58.1313
    -4.2665  -4.2665  -4.2665  -4.2665   1.0248   1.0248   1.0249   1.0249
     4.4353   4.4353   4.4353   4.4354   5.4405   5.4405   5.4406   5.4406

          k = 0.5000 0.2500 0.7500 (  5088 PWs)   bands (ev):

   -96.5400 -96.5398 -96.5230 -96.5229 -58.1346 -58.1346 -58.1341 -58.1341
   -58.1340 -58.1339 -58.1337 -58.1336 -58.1330 -58.1329 -58.1318 -58.1317
    -4.6047  -4.6046  -3.9423  -3.9423   0.9390   0.9390   1.7799   1.7799
     3.5533   3.5533   4.7295   4.7295   4.9728   4.9729   5.1836   5.1836

          k = 0.5000 0.5000 0.0000 (  5056 PWs)   bands (ev):

   -96.5223 -96.5221 -96.5221 -96.5220 -58.1334 -58.1332 -58.1332 -58.1332
   -58.1329 -58.1329 -58.1328 -58.1328 -58.1317 -58.1317 -58.1317 -58.1317
    -4.3106  -4.3106  -4.3105  -4.3105   1.6953   1.6953   1.6954   1.6954
     3.3528   3.3529   3.3529   3.3529   5.4024   5.4024   5.4024   5.4024

          k = 0.5000 0.5000 0.2500 (  5048 PWs)   bands (ev):

   -96.5203 -96.5201 -96.5201 -96.5201 -58.1333 -58.1333 -58.1332 -58.1332
   -58.1331 -58.1329 -58.1329 -58.1329 -58.1313 -58.1313 -58.1313 -58.1313
    -4.2665  -4.2665  -4.2665  -4.2665   1.0248   1.0248   1.0249   1.0249
     4.4353   4.4353   4.4353   4.4354   5.4405   5.4405   5.4406   5.4406

          k = 0.5000 0.5000 0.5000 (  5040 PWs)   bands (ev):

   -96.5178 -96.5176 -96.5176 -96.5175 -58.1333 -58.1333 -58.1332 -58.1332
   -58.1331 -58.1331 -58.1331 -58.1331 -58.1305 -58.1305 -58.1305 -58.1305
    -4.2202  -4.2201  -4.2201  -4.2201   0.6059   0.6059   0.6059   0.6060
     5.4809   5.4809   5.4809   5.4809   5.4810   5.4810   5.4810   5.4810

          k = 0.5000 0.5000 0.7500 (  5048 PWs)   bands (ev):

   -96.5203 -96.5201 -96.5201 -96.5201 -58.1333 -58.1333 -58.1332 -58.1332
   -58.1331 -58.1329 -58.1329 -58.1329 -58.1313 -58.1313 -58.1313 -58.1313
    -4.2665  -4.2665  -4.2665  -4.2665   1.0248   1.0248   1.0249   1.0249
     4.4353   4.4353   4.4353   4.4354   5.4405   5.4405   5.4406   5.4406

          k = 0.5000 0.7500 0.0000 (  5066 PWs)   bands (ev):

   -96.5350 -96.5349 -96.5164 -96.5163 -58.1342 -58.1340 -58.1338 -58.1336
   -58.1332 -58.1331 -58.1328 -58.1327 -58.1326 -58.1325 -58.1319 -58.1317
    -4.7427  -4.7427  -3.8215  -3.8215   1.2439   1.2439   2.5100   2.5100
     2.8501   2.8501   4.3016   4.3016   4.3712   4.3712   5.3208   5.3208

          k = 0.5000 0.7500 0.2500 (  5088 PWs)   bands (ev):

   -96.5400 -96.5398 -96.5230 -96.5229 -58.1346 -58.1346 -58.1341 -58.1341
   -58.1340 -58.1339 -58.1337 -58.1336 -58.1330 -58.1329 -58.1318 -58.1317
    -4.6047  -4.6046  -3.9423  -3.9423   0.9390   0.9390   1.7799   1.7799
     3.5533   3.5533   4.7295   4.7295   4.9728   4.9729   5.1836   5.1836

          k = 0.5000 0.7500 0.5000 (  5048 PWs)   bands (ev):

   -96.5203 -96.5201 -96.5201 -96.5201 -58.1333 -58.1333 -58.1332 -58.1332
   -58.1331 -58.1329 -58.1329 -58.1329 -58.1313 -58.1313 -58.1313 -58.1313
    -4.2665  -4.2665  -4.2665  -4.2665   1.0248   1.0248   1.0249   1.0249
     4.4353   4.4353   4.4353   4.4354   5.4405   5.4405   5.4406   5.4406

          k = 0.5000 0.7500 0.7500 (  5088 PWs)   bands (ev):

   -96.5400 -96.5398 -96.5230 -96.5229 -58.1346 -58.1346 -58.1341 -58.1341
   -58.1340 -58.1339 -58.1337 -58.1336 -58.1330 -58.1329 -58.1318 -58.1317
    -4.6047  -4.6046  -3.9423  -3.9423   0.9389   0.9390   1.7799   1.7799
     3.5533   3.5533   4.7295   4.7295   4.9728   4.9729   5.1836   5.1836

          k = 0.7500 0.0000 0.0000 (  5069 PWs)   bands (ev):

   -96.5394 -96.5261 -96.5208 -96.5206 -58.1350 -58.1338 -58.1338 -58.1332
   -58.1332 -58.1331 -58.1331 -58.1331 -58.1330 -58.1320 -58.1320 -58.1320
    -5.5079  -4.0991  -3.6182  -3.6182   0.9346   0.9346   1.5037   3.5335
     3.5335   3.6906   3.6906   4.3025   4.3025   4.9650   5.8102   5.8102

          k = 0.7500 0.0000 0.2500 (  5047 PWs)   bands (ev):

   -96.5347 -96.5189 -96.5149 -96.5147 -58.1338 -58.1332 -58.1332 -58.1329
   -58.1329 -58.1328 -58.1328 -58.1327 -58.1326 -58.1324 -58.1310 -58.1310
    -5.3050  -4.0126  -4.0126  -3.6675   1.0488   1.4256   1.4256   2.7793
     3.6795   3.6796   3.8583   4.2119   4.2120   4.4648   5.2305   6.1638

          k = 0.7500 0.0000 0.5000 (  5066 PWs)   bands (ev):

   -96.5350 -96.5349 -96.5164 -96.5163 -58.1341 -58.1341 -58.1338 -58.1337
   -58.1332 -58.1331 -58.1328 -58.1328 -58.1325 -58.1325 -58.1318 -58.1318
    -4.7427  -4.7427  -3.8215  -3.8215   1.2439   1.2439   2.5100   2.5100
     2.8501   2.8501   4.3016   4.3016   4.3712   4.3712   5.3208   5.3208

          k = 0.7500 0.0000 0.7500 (  5047 PWs)   bands (ev):

   -96.5347 -96.5189 -96.5149 -96.5147 -58.1338 -58.1332 -58.1331 -58.1329
   -58.1329 -58.1328 -58.1328 -58.1327 -58.1326 -58.1324 -58.1310 -58.1310
    -5.3050  -4.0126  -4.0126  -3.6675   1.0488   1.4256   1.4257   2.7793
     3.6795   3.6796   3.8583   4.2119   4.2120   4.4648   5.2305   6.1638

          k = 0.7500 0.2500 0.0000 (  5047 PWs)   bands (ev):

   -96.5347 -96.5189 -96.5148 -96.5148 -58.1338 -58.1332 -58.1331 -58.1329
   -58.1329 -58.1328 -58.1328 -58.1327 -58.1326 -58.1324 -58.1310 -58.1310
    -5.3050  -4.0126  -4.0126  -3.6675   1.0488   1.4256   1.4256   2.7793
     3.6795   3.6796   3.8583   4.2119   4.2120   4.4648   5.2305   6.1638

          k = 0.7500 0.2500 0.2500 (  5070 PWs)   bands (ev):

   -96.5371 -96.5232 -96.5231 -96.5230 -58.1337 -58.1337 -58.1336 -58.1336
   -58.1336 -58.1335 -58.1334 -58.1333 -58.1333 -58.1317 -58.1317 -58.1316
    -5.1164  -3.9783  -3.9782  -3.9782   1.1720   1.1720   1.1720   2.8796
     3.5051   3.5052   3.5052   4.6573   4.6573   4.6574   5.8354   5.8354

          k = 0.7500 0.2500 0.5000 (  5088 PWs)   bands (ev):

   -96.5399 -96.5398 -96.5230 -96.5229 -58.1346 -58.1346 -58.1341 -58.1341
   -58.1340 -58.1340 -58.1337 -58.1336 -58.1329 -58.1329 -58.1317 -58.1317
    -4.6047  -4.6047  -3.9423  -3.9423   0.9390   0.9390   1.7799   1.7799
     3.5533   3.5533   4.7295   4.7295   4.9728   4.9729   5.1836   5.1836

          k = 0.7500 0.2500 0.7500 (  5070 PWs)   bands (ev):

   -96.5371 -96.5232 -96.5231 -96.5230 -58.1337 -58.1337 -58.1336 -58.1336
   -58.1336 -58.1335 -58.1334 -58.1333 -58.1333 -58.1317 -58.1317 -58.1316
    -5.1164  -3.9783  -3.9783  -3.9782   1.1720   1.1720   1.1720   2.8796
     3.5051   3.5051   3.5052   4.6573   4.6573   4.6574   5.8354   5.8354

          k = 0.7500 0.5000 0.0000 (  5066 PWs)   bands (ev):

   -96.5350 -96.5349 -96.5164 -96.5163 -58.1341 -58.1341 -58.1338 -58.1336
   -58.1332 -58.1331 -58.1328 -58.1327 -58.1326 -58.1325 -58.1319 -58.1317
    -4.7427  -4.7427  -3.8215  -3.8215   1.2439   1.2439   2.5100   2.5100
     2.8501   2.8501   4.3016   4.3016   4.3712   4.3712   5.3208   5.3208

          k = 0.7500 0.5000 0.2500 (  5088 PWs)   bands (ev):

   -96.5399 -96.5398 -96.5230 -96.5229 -58.1346 -58.1346 -58.1341 -58.1340
   -58.1340 -58.1339 -58.1337 -58.1336 -58.1329 -58.1329 -58.1317 -58.1317
    -4.6047  -4.6047  -3.9423  -3.9423   0.9390   0.9390   1.7799   1.7799
     3.5533   3.5533   4.7295   4.7295   4.9728   4.9729   5.1836   5.1836

          k = 0.7500 0.5000 0.5000 (  5048 PWs)   bands (ev):

   -96.5203 -96.5201 -96.5201 -96.5201 -58.1333 -58.1333 -58.1332 -58.1331
   -58.1331 -58.1330 -58.1329 -58.1329 -58.1313 -58.1313 -58.1313 -58.1312
    -4.2665  -4.2665  -4.2665  -4.2665   1.0248   1.0248   1.0249   1.0249
     4.4353   4.4353   4.4353   4.4354   5.4405   5.4405   5.4406   5.4406

          k = 0.7500 0.5000 0.7500 (  5088 PWs)   bands (ev):

   -96.5399 -96.5398 -96.5230 -96.5229 -58.1346 -58.1346 -58.1341 -58.1341
   -58.1340 -58.1339 -58.1337 -58.1336 -58.1329 -58.1329 -58.1317 -58.1317
    -4.6047  -4.6047  -3.9423  -3.9423   0.9389   0.9390   1.7799   1.7799
     3.5533   3.5533   4.7295   4.7295   4.9728   4.9729   5.1836   5.1836

          k = 0.7500 0.7500 0.0000 (  5047 PWs)   bands (ev):

   -96.5347 -96.5189 -96.5148 -96.5148 -58.1338 -58.1332 -58.1331 -58.1329
   -58.1329 -58.1328 -58.1328 -58.1327 -58.1326 -58.1324 -58.1310 -58.1310
    -5.3050  -4.0126  -4.0126  -3.6675   1.0488   1.4256   1.4257   2.7793
     3.6795   3.6796   3.8583   4.2119   4.2120   4.4648   5.2305   6.1638

          k = 0.7500 0.7500 0.2500 (  5070 PWs)   bands (ev):

   -96.5371 -96.5232 -96.5231 -96.5230 -58.1337 -58.1337 -58.1336 -58.1336
   -58.1336 -58.1335 -58.1334 -58.1333 -58.1333 -58.1317 -58.1317 -58.1316
    -5.1164  -3.9783  -3.9783  -3.9782   1.1720   1.1720   1.1720   2.8796
     3.5051   3.5051   3.5052   4.6573   4.6573   4.6574   5.8354   5.8354

          k = 0.7500 0.7500 0.5000 (  5088 PWs)   bands (ev):

   -96.5399 -96.5398 -96.5230 -96.5229 -58.1346 -58.1346 -58.1341 -58.1341
   -58.1340 -58.1339 -58.1337 -58.1336 -58.1329 -58.1329 -58.1317 -58.1317
    -4.6047  -4.6047  -3.9423  -3.9423   0.9389   0.9390   1.7799   1.7799
     3.5533   3.5533   4.7295   4.7295   4.9728   4.9729   5.1836   5.1836

          k = 0.7500 0.7500 0.7500 (  5070 PWs)   bands (ev):

   -96.5371 -96.5232 -96.5231 -96.5230 -58.1337 -58.1337 -58.1336 -58.1336
   -58.1336 -58.1335 -58.1334 -58.1333 -58.1333 -58.1317 -58.1317 -58.1316
    -5.1164  -3.9783  -3.9783  -3.9782   1.1720   1.1720   1.1721   2.8796
     3.5051   3.5051   3.5052   4.6573   4.6573   4.6573   5.8354   5.8354

     highest occupied level (ev):     6.3316

!    total energy              =    -604.42088303 Ry
     estimated scf accuracy    <          2.1E-09 Ry

     The total energy is the sum of the following terms:
     one-electron contribution =    -427.61159445 Ry
     hartree contribution      =     185.09673695 Ry
     xc contribution           =     -75.47773837 Ry
     ewald contribution        =    -286.42828716 Ry

     convergence has been achieved in   8 iterations

     Forces acting on atoms (cartesian axes, Ry/au):

     atom    1 type  1   force =    -0.00003044   -0.00002460   -0.00002509
     atom    2 type  1   force =     0.00003907    0.00003409   -0.00004177
     atom    3 type  1   force =     0.00004032   -0.00003870    0.00003579
     atom    4 type  1   force =    -0.00004344    0.00003516    0.00003781
     atom    5 type  2   force =    -0.00000170   -0.00000233   -0.00000190
     atom    6 type  2   force =    -0.00000064   -0.00000041   -0.00000238
     atom    7 type  2   force =    -0.00000074   -0.00000270   -0.00000129
     atom    8 type  2   force =    -0.00000243   -0.00000049   -0.00000117
     The non-local contrib.  to forces
     atom    1 type  1   force =    -0.00005488   -0.00005516   -0.00005260
     atom    2 type  1   force =     0.00007855    0.00007952   -0.00008367
     atom    3 type  1   force =     0.00008012   -0.00008376    0.00007867
     atom    4 type  1   force =    -0.00008314    0.00008045    0.00008139
     atom    5 type  2   force =     0.00000247    0.00000200    0.00000102
     atom    6 type  2   force =    -0.00000054   -0.00000095    0.00000042
     atom    7 type  2   force =    -0.00000102    0.00000057    0.00000240
     atom    8 type  2   force =     0.00000233    0.00000106    0.00000231
     The ionic contribution  to forces
     atom    1 type  1   force =     0.00000000    0.00000000    0.00000000
     atom    2 type  1   force =     0.00000000   -0.00000000    0.00000000
     atom    3 type  1   force =     0.00000000   -0.00000000    0.00000000
     atom    4 type  1   force =     0.00000000   -0.00000000    0.00000000
     atom    5 type  2   force =    -0.00000000    0.00000000   -0.00000000
     atom    6 type  2   force =    -0.00000000    0.00000000   -0.00000000
     atom    7 type  2   force =    -0.00000000    0.00000000   -0.00000000
     atom    8 type  2   force =     0.00000000    0.00000000   -0.00000000
     The local contribution  to forces
     atom    1 type  1   force =     0.00003077    0.00002810    0.00003448
     atom    2 type  1   force =    -0.00004764   -0.00004350    0.00004742
     atom    3 type  1   force =    -0.00004438    0.00004779   -0.00004832
     atom    4 type  1   force =     0.00005122   -0.00004177   -0.00003859
     atom    5 type  2   force =    -0.00000488   -0.00000008    0.00000858
     atom    6 type  2   force =     0.00000502    0.00000145    0.00000794
     atom    7 type  2   force =     0.00000576    0.00000144   -0.00001170
     atom    8 type  2   force =    -0.00000746   -0.00000330   -0.00001130
     The core correction contribution to forces
     atom    1 type  1   force =     0.00000000    0.00000000    0.00000000
     atom    2 type  1   force =     0.00000000    0.00000000    0.00000000
     atom    3 type  1   force =     0.00000000    0.00000000    0.00000000
     atom    4 type  1   force =     0.00000000    0.00000000    0.00000000
     atom    5 type  2   force =     0.00000000    0.00000000    0.00000000
     atom    6 type  2   force =     0.00000000    0.00000000    0.00000000
     atom    7 type  2   force =     0.00000000    0.00000000    0.00000000
     atom    8 type  2   force =     0.00000000    0.00000000    0.00000000
     The Hubbard contrib.    to forces
     atom    1 type  1   force =     0.00000000    0.00000000    0.00000000
     atom    2 type  1   force =     0.00000000    0.00000000    0.00000000
     atom    3 type  1   force =     0.00000000    0.00000000    0.00000000
     atom    4 type  1   force =     0.00000000    0.00000000    0.00000000
     atom    5 type  2   force =     0.00000000    0.00000000    0.00000000
     atom    6 type  2   force =     0.00000000    0.00000000    0.00000000
     atom    7 type  2   force =     0.00000000    0.00000000    0.00000000
     atom    8 type  2   force =     0.00000000    0.00000000    0.00000000
     The SCF correction term to forces
     atom    1 type  1   force =    -0.00000449    0.00000440   -0.00000474
     atom    2 type  1   force =     0.00001000    0.00000001   -0.00000330
     atom    3 type  1   force =     0.00000641   -0.00000079    0.00000765
     atom    4 type  1   force =    -0.00000969   -0.00000158   -0.00000276
     atom    5 type  2   force =     0.00000255   -0.00000231   -0.00000929
     atom    6 type  2   force =    -0.00000329    0.00000103   -0.00000851
     atom    7 type  2   force =    -0.00000365   -0.00000277    0.00001023
     atom    8 type  2   force =     0.00000454    0.00000368    0.00001004

     Total force =     0.000125     Total SCF correction =     0.000029
     SCF correction compared to forces is large: reduce conv_thr to get better values

     Writing all to output data dir ../tmp/alas.save/
 
     init_run     :      0.75s CPU      0.78s WALL (       1 calls)
     electrons    :     31.11s CPU     31.61s WALL (       1 calls)
     forces       :      0.29s CPU      0.30s WALL (       1 calls)

     Called by init_run:
     wfcinit      :      0.72s CPU      0.74s WALL (       1 calls)
     potinit      :      0.01s CPU      0.01s WALL (       1 calls)
     hinit0       :      0.01s CPU      0.01s WALL (       1 calls)

     Called by electrons:
     c_bands      :     23.07s CPU     23.40s WALL (       9 calls)
     sum_band     :      2.71s CPU      2.74s WALL (       9 calls)
     v_of_rho     :      0.05s CPU      0.05s WALL (       9 calls)
     mix_rho      :      0.01s CPU      0.01s WALL (       9 calls)

     Called by c_bands:
     init_us_2    :      0.40s CPU      0.42s WALL (    1280 calls)
     init_us_2:cp :      0.40s CPU      0.41s WALL (    1280 calls)
     cegterg      :     20.25s CPU     20.55s WALL (     576 calls)

     Called by *egterg:
     cdiaghg      :      1.72s CPU      1.75s WALL (    2307 calls)
     h_psi        :     16.62s CPU     16.88s WALL (    2435 calls)
     g_psi        :      0.13s CPU      0.13s WALL (    1795 calls)

     Called by h_psi:
     h_psi:calbec :      0.93s CPU      0.94s WALL (    2435 calls)
     vloc_psi     :     14.75s CPU     14.99s WALL (    2435 calls)
     add_vuspsi   :      0.86s CPU      0.87s WALL (    2435 calls)

     General routines
     calbec       :      1.07s CPU      1.09s WALL (    2691 calls)
     fft          :      0.02s CPU      0.03s WALL (      92 calls)
     ffts         :      0.00s CPU      0.00s WALL (       9 calls)
     fftw         :     15.13s CPU     15.36s WALL (  135094 calls)
 
     Parallel routines

     Electric-field routines
     c_phase_fiel :      5.28s CPU      5.40s WALL (      24 calls)
 
     PWSCF        :     32.25s CPU     32.85s WALL

 
   This run was terminated on:  18:36: 9  21Apr2026            

=------------------------------------------------------------------------------=
   JOB DONE.
=------------------------------------------------------------------------------=
