
     Program PWSCF v.7.2 starts on 21Apr2026 at 18:36: 9 

     This program is part of the open-source Quantum ESPRESSO suite
     for quantum simulation of materials; please cite
         "P. Giannozzi et al., J. Phys.:Condens. Matter 21 395502 (2009);
         "P. Giannozzi et al., J. Phys.:Condens. Matter 29 465901 (2017);
         "P. Giannozzi et al., J. Chem. Phys. 152 154105 (2020);
          URL http://www.quantum-espresso.org", 
     in publications or presentations arising from this work. More details at
     http://www.quantum-espresso.org/quote

     Parallel version (MPI & OpenMP), running on       4 processor cores
     Number of MPI processes:                 4
     Threads/MPI process:                     1

     MPI processes distributed on     1 nodes
     57688 MiB available memory on the printing compute node when the environment starts
 
     Waiting for input...
     Reading input from standard input

     Current dimensions of program PWSCF are:
     Max number of different atomic species (ntypx) = 10
     Max number of k-points (npk) =  40000
     Max angular momentum in pseudopotentials (lmaxx) =  4
     Found identity + ( -0.5000 -0.5000  0.0000) symmetry
     This is a supercell, fractional translations are disabled
 
     R & G space division:  proc/nbgrp/npool/nimage =       4
     Subspace diagonalization in iterative solution of the eigenvalue problem:
     a serial algorithm will be used

 
     Parallelization info
     --------------------
     sticks:   dense  smooth     PW     G-vecs:    dense   smooth      PW
     Min         358     358    109                10120    10120    1779
     Max         359     359    110                10123    10123    1784
     Sum        1433    1433    437                40483    40483    7123
 
     Using Slab Decomposition
 


     bravais-lattice index     =            1
     lattice parameter (alat)  =      10.5800  a.u.
     unit-cell volume          =    1184.2871 (a.u.)^3
     number of atoms/cell      =            8
     number of atomic types    =            2
     number of electrons       =        64.00
     number of Kohn-Sham states=           32
     kinetic-energy cutoff     =      40.0000  Ry
     charge density cutoff     =     160.0000  Ry
     scf convergence threshold =      1.0E-08
     mixing beta               =       0.5000
     number of iterations used =            8  plain     mixing
     Exchange-correlation= PBE
                           (   1   4   3   4   0   0   0)
 
     Using Berry phase electric field
     In a.u.(Ry)  cartesian system of reference
        0.0010000000
        0.0000000000
        0.0000000000
     In a.u.(Ry)  crystal system of reference
        0.0010000000
        0.0000000000
        0.0000000000
     Number of iterative cycles:   3
 

     celldm(1)=  10.580000  celldm(2)=   0.000000  celldm(3)=   0.000000
     celldm(4)=   0.000000  celldm(5)=   0.000000  celldm(6)=   0.000000

     crystal axes: (cart. coord. in units of alat)
               a(1) = (   1.000000   0.000000   0.000000 )  
               a(2) = (   0.000000   1.000000   0.000000 )  
               a(3) = (   0.000000   0.000000   1.000000 )  

     reciprocal axes: (cart. coord. in units 2 pi/alat)
               b(1) = (  1.000000  0.000000  0.000000 )  
               b(2) = (  0.000000  1.000000  0.000000 )  
               b(3) = (  0.000000  0.000000  1.000000 )  


     PseudoPot. # 1 for Al read from file:
     ../../pseudo/Al_ONCV_PBE-1.2.upf
     MD5 check sum: 2d9e7bc02555220d62fad08c3c4858e7
     Pseudo is Norm-conserving, Zval = 11.0
     Generated using ONCVPSP code by D. R. Hamann
     Using radial grid of  602 points,  4 beta functions with: 
                l(1) =   0
                l(2) =   0
                l(3) =   1
                l(4) =   1

     PseudoPot. # 2 for As read from file:
     ../../pseudo/As_ONCV_PBE-1.2.upf
     MD5 check sum: a2ff92a4799c87c945fff9e6739df4dd
     Pseudo is Norm-conserving, Zval =  5.0
     Generated using ONCVPSP code by D. R. Hamann
     Using radial grid of  602 points,  6 beta functions with: 
                l(1) =   0
                l(2) =   0
                l(3) =   1
                l(4) =   1
                l(5) =   2
                l(6) =   2

     atomic species   valence    mass     pseudopotential
        Al            11.00    26.98200     Al( 1.00)
        As             5.00    74.92200     As( 1.00)

     No symmetry found



   Cartesian axes

     site n.     atom                  positions (alat units)
         1           Al  tau(   1) = (  -0.1250000  -0.1250000  -0.1250000  )
         2           Al  tau(   2) = (   0.3750000   0.3750000  -0.1250000  )
         3           Al  tau(   3) = (   0.3750000  -0.1250000   0.3750000  )
         4           Al  tau(   4) = (  -0.1250000   0.3750000   0.3750000  )
         5           As  tau(   5) = (   0.1250000   0.1250000   0.1250000  )
         6           As  tau(   6) = (   0.6250000   0.6250000   0.1250000  )
         7           As  tau(   7) = (   0.6250000   0.1250000   0.6250000  )
         8           As  tau(   8) = (   0.1250000   0.6250000   0.6250000  )

     number of k points=    64
                       cart. coord. in units 2pi/alat
        k(    1) = (   0.0000000   0.0000000   0.0000000), wk =   0.0312500
        k(    2) = (   0.0000000   0.0000000   0.2500000), wk =   0.0312500
        k(    3) = (   0.0000000   0.0000000   0.5000000), wk =   0.0312500
        k(    4) = (   0.0000000   0.0000000   0.7500000), wk =   0.0312500
        k(    5) = (   0.0000000   0.2500000   0.0000000), wk =   0.0312500
        k(    6) = (   0.0000000   0.2500000   0.2500000), wk =   0.0312500
        k(    7) = (   0.0000000   0.2500000   0.5000000), wk =   0.0312500
        k(    8) = (   0.0000000   0.2500000   0.7500000), wk =   0.0312500
        k(    9) = (   0.0000000   0.5000000   0.0000000), wk =   0.0312500
        k(   10) = (   0.0000000   0.5000000   0.2500000), wk =   0.0312500
        k(   11) = (   0.0000000   0.5000000   0.5000000), wk =   0.0312500
        k(   12) = (   0.0000000   0.5000000   0.7500000), wk =   0.0312500
        k(   13) = (   0.0000000   0.7500000   0.0000000), wk =   0.0312500
        k(   14) = (   0.0000000   0.7500000   0.2500000), wk =   0.0312500
        k(   15) = (   0.0000000   0.7500000   0.5000000), wk =   0.0312500
        k(   16) = (   0.0000000   0.7500000   0.7500000), wk =   0.0312500
        k(   17) = (   0.2500000   0.0000000   0.0000000), wk =   0.0312500
        k(   18) = (   0.2500000   0.0000000   0.2500000), wk =   0.0312500
        k(   19) = (   0.2500000   0.0000000   0.5000000), wk =   0.0312500
        k(   20) = (   0.2500000   0.0000000   0.7500000), wk =   0.0312500
        k(   21) = (   0.2500000   0.2500000   0.0000000), wk =   0.0312500
        k(   22) = (   0.2500000   0.2500000   0.2500000), wk =   0.0312500
        k(   23) = (   0.2500000   0.2500000   0.5000000), wk =   0.0312500
        k(   24) = (   0.2500000   0.2500000   0.7500000), wk =   0.0312500
        k(   25) = (   0.2500000   0.5000000   0.0000000), wk =   0.0312500
        k(   26) = (   0.2500000   0.5000000   0.2500000), wk =   0.0312500
        k(   27) = (   0.2500000   0.5000000   0.5000000), wk =   0.0312500
        k(   28) = (   0.2500000   0.5000000   0.7500000), wk =   0.0312500
        k(   29) = (   0.2500000   0.7500000   0.0000000), wk =   0.0312500
        k(   30) = (   0.2500000   0.7500000   0.2500000), wk =   0.0312500
        k(   31) = (   0.2500000   0.7500000   0.5000000), wk =   0.0312500
        k(   32) = (   0.2500000   0.7500000   0.7500000), wk =   0.0312500
        k(   33) = (   0.5000000   0.0000000   0.0000000), wk =   0.0312500
        k(   34) = (   0.5000000   0.0000000   0.2500000), wk =   0.0312500
        k(   35) = (   0.5000000   0.0000000   0.5000000), wk =   0.0312500
        k(   36) = (   0.5000000   0.0000000   0.7500000), wk =   0.0312500
        k(   37) = (   0.5000000   0.2500000   0.0000000), wk =   0.0312500
        k(   38) = (   0.5000000   0.2500000   0.2500000), wk =   0.0312500
        k(   39) = (   0.5000000   0.2500000   0.5000000), wk =   0.0312500
        k(   40) = (   0.5000000   0.2500000   0.7500000), wk =   0.0312500
        k(   41) = (   0.5000000   0.5000000   0.0000000), wk =   0.0312500
        k(   42) = (   0.5000000   0.5000000   0.2500000), wk =   0.0312500
        k(   43) = (   0.5000000   0.5000000   0.5000000), wk =   0.0312500
        k(   44) = (   0.5000000   0.5000000   0.7500000), wk =   0.0312500
        k(   45) = (   0.5000000   0.7500000   0.0000000), wk =   0.0312500
        k(   46) = (   0.5000000   0.7500000   0.2500000), wk =   0.0312500
        k(   47) = (   0.5000000   0.7500000   0.5000000), wk =   0.0312500
        k(   48) = (   0.5000000   0.7500000   0.7500000), wk =   0.0312500
        k(   49) = (   0.7500000   0.0000000   0.0000000), wk =   0.0312500
        k(   50) = (   0.7500000   0.0000000   0.2500000), wk =   0.0312500
        k(   51) = (   0.7500000   0.0000000   0.5000000), wk =   0.0312500
        k(   52) = (   0.7500000   0.0000000   0.7500000), wk =   0.0312500
        k(   53) = (   0.7500000   0.2500000   0.0000000), wk =   0.0312500
        k(   54) = (   0.7500000   0.2500000   0.2500000), wk =   0.0312500
        k(   55) = (   0.7500000   0.2500000   0.5000000), wk =   0.0312500
        k(   56) = (   0.7500000   0.2500000   0.7500000), wk =   0.0312500
        k(   57) = (   0.7500000   0.5000000   0.0000000), wk =   0.0312500
        k(   58) = (   0.7500000   0.5000000   0.2500000), wk =   0.0312500
        k(   59) = (   0.7500000   0.5000000   0.5000000), wk =   0.0312500
        k(   60) = (   0.7500000   0.5000000   0.7500000), wk =   0.0312500
        k(   61) = (   0.7500000   0.7500000   0.0000000), wk =   0.0312500
        k(   62) = (   0.7500000   0.7500000   0.2500000), wk =   0.0312500
        k(   63) = (   0.7500000   0.7500000   0.5000000), wk =   0.0312500
        k(   64) = (   0.7500000   0.7500000   0.7500000), wk =   0.0312500

     Dense  grid:    40483 G-vectors     FFT dimensions: (  45,  45,  45)

     Estimated max dynamical RAM per process >      53.05 MB

     Estimated total dynamical RAM >     212.19 MB

     Initial potential from superposition of free atoms

     starting charge      63.5461, renormalised to      64.0000
     Starting wfcs are random

     total cpu time spent up to now is        0.8 secs

     Self-consistent Calculation

     iteration #  1     ecut=    40.00 Ry     beta= 0.50
     Davidson diagonalization with overlap
     ethr =  1.00E-02,  avg # of iterations =  8.2
     Davidson diagonalization with overlap
     ethr =  1.00E-02,  avg # of iterations =  1.7
     Davidson diagonalization with overlap
     ethr =  1.00E-02,  avg # of iterations =  1.0

     Threshold (ethr) on eigenvalues was too large:
     Diagonalizing with lowered threshold

     Davidson diagonalization with overlap
     ethr =  5.47E-04,  avg # of iterations =  1.3
     Davidson diagonalization with overlap
     ethr =  5.47E-04,  avg # of iterations =  1.0
     Davidson diagonalization with overlap
     ethr =  5.47E-04,  avg # of iterations =  1.0
 
     Expectation value of exp(iGx): (0.192622879365712,2.425935449589880E-002)
   1.00000000000000     
     Electronic Dipole per cell (Ry a.u.)  0.596680183196006     
     Ionic Dipole per cell (Ry a.u.)   194.510933368796     
 
     Expectation value of exp(iGx): (0.194083077227438,4.066759510903441E-007)
   1.00000000000000     
     Electronic Dipole per cell (Ry a.u.)  9.979565074641109E-006
     Ionic Dipole per cell (Ry a.u.)   194.510933368795     
 
     Expectation value of exp(iGx): (0.194206830799104,4.004476014039417E-004)
   1.00000000000000     
     Electronic Dipole per cell (Ry a.u.)  9.820449638467179E-003
     Ionic Dipole per cell (Ry a.u.)   194.510933368796     
Electronic Dipole on Cartesian axes
           1  0.596680183196006     
           2  9.979565074641109E-006
           3  9.820449638467179E-003
Ionic Dipole on Cartesian axes
           1   194.510933368796     
           2   194.510933368795     
           3   194.510933368796     

     total cpu time spent up to now is       46.9 secs

     total energy              =    -604.57230577 Ry
     estimated scf accuracy    <       0.34729068 Ry

     iteration #  2     ecut=    40.00 Ry     beta= 0.50
     Davidson diagonalization with overlap
     ethr =  5.43E-04,  avg # of iterations =  2.0
     Davidson diagonalization with overlap
     ethr =  5.43E-04,  avg # of iterations =  1.0
     Davidson diagonalization with overlap
     ethr =  5.43E-04,  avg # of iterations =  1.0
 
     Expectation value of exp(iGx): (0.171861613134004,2.463155469467176E-002)
   1.00000000000000     
     Electronic Dipole per cell (Ry a.u.)  0.677978981480049     
     Ionic Dipole per cell (Ry a.u.)   194.510933368796     
 
     Expectation value of exp(iGx): (0.173660551462784,-2.006768188472525E-005)
   1.00000000000000     
     Electronic Dipole per cell (Ry a.u.) -5.503599506339223E-004
     Ionic Dipole per cell (Ry a.u.)   194.510933368795     
 
     Expectation value of exp(iGx): (0.173678149101948,4.350014303916008E-005)
   1.00000000000000     
     Electronic Dipole per cell (Ry a.u.)  1.192878707427069E-003
     Ionic Dipole per cell (Ry a.u.)   194.510933368796     
Electronic Dipole on Cartesian axes
           1  0.677978981480049     
           2 -5.503599506339223E-004
           3  1.192878707427069E-003
Ionic Dipole on Cartesian axes
           1   194.510933368796     
           2   194.510933368795     
           3   194.510933368796     

     total cpu time spent up to now is       65.5 secs

     total energy              =    -604.61535046 Ry
     estimated scf accuracy    <       0.02921355 Ry

     iteration #  3     ecut=    40.00 Ry     beta= 0.50
     Davidson diagonalization with overlap
     ethr =  4.56E-05,  avg # of iterations =  1.0
     Davidson diagonalization with overlap
     ethr =  4.56E-05,  avg # of iterations =  1.0
     Davidson diagonalization with overlap
     ethr =  4.56E-05,  avg # of iterations =  1.0
 
     Expectation value of exp(iGx): (0.170103122884397,2.489848751214701E-002)
   1.00000000000000     
     Electronic Dipole per cell (Ry a.u.)  0.692210695213407     
     Ionic Dipole per cell (Ry a.u.)   194.510933368796     
 
     Expectation value of exp(iGx): (0.171976445229852,-1.062751379093453E-005)
   1.00000000000000     
     Electronic Dipole per cell (Ry a.u.) -2.943157487522404E-004
     Ionic Dipole per cell (Ry a.u.)   194.510933368795     
 
     Expectation value of exp(iGx): (0.171981307156716,9.566263160092374E-006)
   1.00000000000000     
     Electronic Dipole per cell (Ry a.u.)  2.649182458192418E-004
     Ionic Dipole per cell (Ry a.u.)   194.510933368796     
Electronic Dipole on Cartesian axes
           1  0.692210695213407     
           2 -2.943157487522404E-004
           3  2.649182458192418E-004
Ionic Dipole on Cartesian axes
           1   194.510933368796     
           2   194.510933368795     
           3   194.510933368796     

     total cpu time spent up to now is       82.8 secs

     total energy              =    -604.61561621 Ry
     estimated scf accuracy    <       0.00498444 Ry

     iteration #  4     ecut=    40.00 Ry     beta= 0.50
     Davidson diagonalization with overlap
     ethr =  7.79E-06,  avg # of iterations =  1.0
     Davidson diagonalization with overlap
     ethr =  7.79E-06,  avg # of iterations =  1.0
     Davidson diagonalization with overlap
     ethr =  7.79E-06,  avg # of iterations =  1.0
 
     Expectation value of exp(iGx): (0.170102449918224,2.502711360923262E-002)
   1.00000000000000     
     Electronic Dipole per cell (Ry a.u.)  0.695738853906582     
     Ionic Dipole per cell (Ry a.u.)   194.510933368796     
 
     Expectation value of exp(iGx): (0.172000122599134,-4.343163082215235E-006)
   1.00000000000000     
     Electronic Dipole per cell (Ry a.u.) -1.202619311335639E-004
     Ionic Dipole per cell (Ry a.u.)   194.510933368795     
 
     Expectation value of exp(iGx): (0.172001687865675,6.569034041685809E-006)
   1.00000000000000     
     Electronic Dipole per cell (Ry a.u.)  1.818945121531087E-004
     Ionic Dipole per cell (Ry a.u.)   194.510933368796     
Electronic Dipole on Cartesian axes
           1  0.695738853906582     
           2 -1.202619311335639E-004
           3  1.818945121531087E-004
Ionic Dipole on Cartesian axes
           1   194.510933368796     
           2   194.510933368795     
           3   194.510933368796     

     total cpu time spent up to now is      100.2 secs

     total energy              =    -604.61573904 Ry
     estimated scf accuracy    <       0.00003660 Ry

     iteration #  5     ecut=    40.00 Ry     beta= 0.50
     Davidson diagonalization with overlap
     ethr =  5.72E-08,  avg # of iterations =  2.3
     Davidson diagonalization with overlap
     ethr =  5.72E-08,  avg # of iterations =  1.0
     Davidson diagonalization with overlap
     ethr =  5.72E-08,  avg # of iterations =  1.0
 
     Expectation value of exp(iGx): (0.169967198020895,2.515026192608844E-002)
   1.00000000000000     
     Electronic Dipole per cell (Ry a.u.)  0.699661810047515     
     Ionic Dipole per cell (Ry a.u.)   194.510933368796     
 
     Expectation value of exp(iGx): (0.171887153555702,-1.803145545135930E-006)
   1.00000000000000     
     Electronic Dipole per cell (Ry a.u.) -4.996180917744572E-005
     Ionic Dipole per cell (Ry a.u.)   194.510933368795     
 
     Expectation value of exp(iGx): (0.171887128256377,-2.155817744909543E-006)
   1.00000000000000     
     Electronic Dipole per cell (Ry a.u.) -5.973370864849849E-005
     Ionic Dipole per cell (Ry a.u.)   194.510933368796     
Electronic Dipole on Cartesian axes
           1  0.699661810047515     
           2 -4.996180917744572E-005
           3 -5.973370864849849E-005
Ionic Dipole on Cartesian axes
           1   194.510933368796     
           2   194.510933368795     
           3   194.510933368796     

     total cpu time spent up to now is      118.8 secs

     total energy              =    -604.61574328 Ry
     estimated scf accuracy    <       0.00000342 Ry

     iteration #  6     ecut=    40.00 Ry     beta= 0.50
     Davidson diagonalization with overlap
     ethr =  5.34E-09,  avg # of iterations =  2.1
     Davidson diagonalization with overlap
     ethr =  5.34E-09,  avg # of iterations =  1.0
     Davidson diagonalization with overlap
     ethr =  5.34E-09,  avg # of iterations =  1.0
 
     Expectation value of exp(iGx): (0.170030856491324,2.516353259937100E-002)
   1.00000000000000     
     Electronic Dipole per cell (Ry a.u.)  0.699767368774953     
     Ionic Dipole per cell (Ry a.u.)   194.510933368796     
 
     Expectation value of exp(iGx): (0.171952629437973,-9.399558215045581E-007)
   1.00000000000000     
     Electronic Dipole per cell (Ry a.u.) -2.603451032163963E-005
     Ionic Dipole per cell (Ry a.u.)   194.510933368795     
 
     Expectation value of exp(iGx): (0.171952565890010,-1.167597869072660E-006)
   1.00000000000000     
     Electronic Dipole per cell (Ry a.u.) -3.233965821830366E-005
     Ionic Dipole per cell (Ry a.u.)   194.510933368796     
Electronic Dipole on Cartesian axes
           1  0.699767368774953     
           2 -2.603451032163963E-005
           3 -3.233965821830366E-005
Ionic Dipole on Cartesian axes
           1   194.510933368796     
           2   194.510933368795     
           3   194.510933368796     

     total cpu time spent up to now is      137.4 secs

     total energy              =    -604.61574368 Ry
     estimated scf accuracy    <       0.00000012 Ry

     iteration #  7     ecut=    40.00 Ry     beta= 0.50
     Davidson diagonalization with overlap
     ethr =  1.83E-10,  avg # of iterations =  4.0
     Davidson diagonalization with overlap
     ethr =  1.83E-10,  avg # of iterations =  1.0
     Davidson diagonalization with overlap
     ethr =  1.83E-10,  avg # of iterations =  1.0
 
     Expectation value of exp(iGx): (0.170071536646088,2.516000171517523E-002)
   1.00000000000000     
     Electronic Dipole per cell (Ry a.u.)  0.699505625322593     
     Ionic Dipole per cell (Ry a.u.)   194.510933368796     
 
     Expectation value of exp(iGx): (0.171992367485180,-5.565183042476919E-007)
   1.00000000000000     
     Electronic Dipole per cell (Ry a.u.) -1.541065405568386E-005
     Ionic Dipole per cell (Ry a.u.)   194.510933368795     
 
     Expectation value of exp(iGx): (0.171992363419804,-4.247792319952894E-007)
   1.00000000000000     
     Electronic Dipole per cell (Ry a.u.) -1.176264266438942E-005
     Ionic Dipole per cell (Ry a.u.)   194.510933368796     
Electronic Dipole on Cartesian axes
           1  0.699505625322593     
           2 -1.541065405568386E-005
           3 -1.176264266438942E-005
Ionic Dipole on Cartesian axes
           1   194.510933368796     
           2   194.510933368795     
           3   194.510933368796     

     total cpu time spent up to now is      157.3 secs

     total energy              =    -604.61574367 Ry
     estimated scf accuracy    <       0.00000022 Ry

     iteration #  8     ecut=    40.00 Ry     beta= 0.50
     Davidson diagonalization with overlap
     ethr =  1.83E-10,  avg # of iterations =  2.0
     Davidson diagonalization with overlap
     ethr =  1.83E-10,  avg # of iterations =  1.0
     Davidson diagonalization with overlap
     ethr =  1.83E-10,  avg # of iterations =  1.0
 
     Expectation value of exp(iGx): (0.170059346507965,2.516088099843764E-002)
   1.00000000000000     
     Electronic Dipole per cell (Ry a.u.)  0.699579146670507     
     Ionic Dipole per cell (Ry a.u.)   194.510933368796     
 
     Expectation value of exp(iGx): (0.171980432922177,-6.327429185098900E-007)
   1.00000000000000     
     Electronic Dipole per cell (Ry a.u.) -1.752262022151986E-005
     Ionic Dipole per cell (Ry a.u.)   194.510933368795     
 
     Expectation value of exp(iGx): (0.171980434235427,-5.653660088136489E-007)
   1.00000000000000     
     Electronic Dipole per cell (Ry a.u.) -1.565674382620322E-005
     Ionic Dipole per cell (Ry a.u.)   194.510933368796     
Electronic Dipole on Cartesian axes
           1  0.699579146670507     
           2 -1.752262022151986E-005
           3 -1.565674382620322E-005
Ionic Dipole on Cartesian axes
           1   194.510933368796     
           2   194.510933368795     
           3   194.510933368796     

     total cpu time spent up to now is      175.8 secs

     total energy              =    -604.61574370 Ry
     estimated scf accuracy    <       0.00000001 Ry

     iteration #  9     ecut=    40.00 Ry     beta= 0.50
     Davidson diagonalization with overlap
     ethr =  2.28E-11,  avg # of iterations =  2.0
     Davidson diagonalization with overlap
     ethr =  2.28E-11,  avg # of iterations =  1.0
     Davidson diagonalization with overlap
     ethr =  2.28E-11,  avg # of iterations =  1.0
 
     Expectation value of exp(iGx): (0.170054397772111,2.516272868519289E-002)
   1.00000000000000     
     Electronic Dipole per cell (Ry a.u.)  0.699649852543584     
     Ionic Dipole per cell (Ry a.u.)   194.510933368796     
 
     Expectation value of exp(iGx): (0.171975814606369,-7.022856709779698E-007)
   1.00000000000000     
     Electronic Dipole per cell (Ry a.u.) -1.944899770083425E-005
     Ionic Dipole per cell (Ry a.u.)   194.510933368795     
 
     Expectation value of exp(iGx): (0.171975814617888,-7.066552761916551E-007)
   1.00000000000000     
     Electronic Dipole per cell (Ry a.u.) -1.957000891372493E-005
     Ionic Dipole per cell (Ry a.u.)   194.510933368796     
Electronic Dipole on Cartesian axes
           1  0.699649852543584     
           2 -1.944899770083425E-005
           3 -1.957000891372493E-005
Ionic Dipole on Cartesian axes
           1   194.510933368796     
           2   194.510933368795     
           3   194.510933368796     

     total cpu time spent up to now is      194.4 secs

     End of self-consistent calculation

          k = 0.0000 0.0000 0.0000 (  5041 PWs)   bands (ev):

   -96.5248 -96.5246 -96.5246 -96.5023 -58.1377 -58.1368 -58.1367 -58.1348
   -58.1337 -58.1335 -58.1314 -58.1307 -58.1293 -58.1281 -58.1280 -58.1264
    -5.7207  -3.6361  -3.6361  -3.6361   0.7762   0.7762   0.7763   4.0780
     4.0798   4.0798   4.0801   4.0801   4.0803   6.3306   6.3333   6.3338

          k = 0.0000 0.0000 0.2500 (  5069 PWs)   bands (ev):

   -96.5390 -96.5258 -96.5205 -96.5203 -58.1381 -58.1371 -58.1369 -58.1365
   -58.1336 -58.1330 -58.1329 -58.1318 -58.1295 -58.1286 -58.1283 -58.1280
    -5.5081  -4.0993  -3.6185  -3.6185   0.9345   0.9345   1.5036   3.5334
     3.5337   3.6905   3.6907   4.3029   4.3032   4.9649   5.8107   5.8108

          k = 0.0000 0.0000 0.5000 (  5078 PWs)   bands (ev):

   -96.5441 -96.5439 -96.5144 -96.5143 -58.1383 -58.1382 -58.1362 -58.1361
   -58.1347 -58.1345 -58.1326 -58.1325 -58.1298 -58.1296 -58.1277 -58.1276
    -4.9077  -4.9077  -3.6005  -3.6005   1.1442   1.1442   3.0236   3.0237
     3.0912   3.0913   3.3900   3.3901   4.9355   4.9355   4.9359   4.9359

          k = 0.0000 0.0000 0.7500 (  5069 PWs)   bands (ev):

   -96.5390 -96.5258 -96.5205 -96.5203 -58.1381 -58.1371 -58.1369 -58.1365
   -58.1336 -58.1330 -58.1329 -58.1318 -58.1295 -58.1286 -58.1283 -58.1280
    -5.5081  -4.0993  -3.6185  -3.6185   0.9345   0.9345   1.5036   3.5334
     3.5337   3.6905   3.6907   4.3029   4.3032   4.9649   5.8107   5.8108

          k = 0.0000 0.2500 0.0000 (  5069 PWs)   bands (ev):

   -96.5390 -96.5258 -96.5205 -96.5203 -58.1381 -58.1371 -58.1369 -58.1365
   -58.1336 -58.1330 -58.1329 -58.1318 -58.1295 -58.1286 -58.1283 -58.1280
    -5.5081  -4.0993  -3.6185  -3.6185   0.9345   0.9345   1.5036   3.5334
     3.5337   3.6905   3.6907   4.3029   4.3032   4.9649   5.8107   5.8108

          k = 0.0000 0.2500 0.2500 (  5047 PWs)   bands (ev):

   -96.5344 -96.5186 -96.5145 -96.5144 -58.1371 -58.1368 -58.1358 -58.1357
   -58.1330 -58.1326 -58.1325 -58.1323 -58.1293 -58.1280 -58.1276 -58.1275
    -5.3053  -4.0126  -4.0126  -3.6680   1.0493   1.4243   1.4243   2.7803
     3.6796   3.6796   3.8600   4.2133   4.2133   4.4634   5.2306   6.1625

          k = 0.0000 0.2500 0.5000 (  5066 PWs)   bands (ev):

   -96.5347 -96.5346 -96.5161 -96.5160 -58.1374 -58.1373 -58.1365 -58.1360
   -58.1340 -58.1338 -58.1324 -58.1323 -58.1290 -58.1288 -58.1280 -58.1275
    -4.7431  -4.7427  -3.8221  -3.8215   1.2424   1.2453   2.5082   2.5116
     2.8496   2.8504   4.3015   4.3017   4.3697   4.3725   5.3195   5.3225

          k = 0.0000 0.2500 0.7500 (  5047 PWs)   bands (ev):

   -96.5344 -96.5186 -96.5145 -96.5144 -58.1378 -58.1365 -58.1362 -58.1362
   -58.1330 -58.1326 -58.1325 -58.1323 -58.1286 -58.1284 -58.1271 -58.1271
    -5.3051  -4.0131  -4.0131  -3.6675   1.0481   1.4267   1.4267   2.7781
     3.6797   3.6797   3.8565   4.2110   4.2110   4.4659   5.2308   6.1655

          k = 0.0000 0.5000 0.0000 (  5078 PWs)   bands (ev):

   -96.5441 -96.5439 -96.5144 -96.5143 -58.1383 -58.1382 -58.1362 -58.1361
   -58.1347 -58.1345 -58.1326 -58.1325 -58.1298 -58.1296 -58.1277 -58.1276
    -4.9077  -4.9077  -3.6005  -3.6005   1.1442   1.1442   3.0236   3.0237
     3.0912   3.0913   3.3900   3.3901   4.9355   4.9355   4.9359   4.9359

          k = 0.0000 0.5000 0.2500 (  5066 PWs)   bands (ev):

   -96.5347 -96.5346 -96.5161 -96.5160 -58.1375 -58.1373 -58.1365 -58.1360
   -58.1340 -58.1338 -58.1324 -58.1323 -58.1290 -58.1288 -58.1280 -58.1275
    -4.7431  -4.7427  -3.8221  -3.8215   1.2424   1.2453   2.5082   2.5116
     2.8496   2.8504   4.3015   4.3017   4.3697   4.3725   5.3195   5.3225

          k = 0.0000 0.5000 0.5000 (  5056 PWs)   bands (ev):

   -96.5220 -96.5218 -96.5218 -96.5217 -58.1368 -58.1367 -58.1357 -58.1356
   -58.1332 -58.1330 -58.1330 -58.1330 -58.1284 -58.1283 -58.1273 -58.1272
    -4.3112  -4.3111  -4.3104  -4.3104   1.6933   1.6934   1.6971   1.6971
     3.3528   3.3528   3.3529   3.3529   5.4009   5.4009   5.4037   5.4037

          k = 0.0000 0.5000 0.7500 (  5066 PWs)   bands (ev):

   -96.5347 -96.5346 -96.5161 -96.5160 -58.1375 -58.1373 -58.1365 -58.1360
   -58.1340 -58.1338 -58.1324 -58.1323 -58.1290 -58.1288 -58.1280 -58.1275
    -4.7431  -4.7427  -3.8221  -3.8215   1.2424   1.2453   2.5082   2.5116
     2.8496   2.8504   4.3015   4.3017   4.3697   4.3725   5.3195   5.3225

          k = 0.0000 0.7500 0.0000 (  5069 PWs)   bands (ev):

   -96.5390 -96.5258 -96.5205 -96.5203 -58.1381 -58.1371 -58.1369 -58.1365
   -58.1336 -58.1330 -58.1329 -58.1318 -58.1295 -58.1286 -58.1283 -58.1280
    -5.5081  -4.0993  -3.6185  -3.6185   0.9345   0.9345   1.5036   3.5334
     3.5337   3.6905   3.6907   4.3029   4.3032   4.9649   5.8107   5.8108

          k = 0.0000 0.7500 0.2500 (  5047 PWs)   bands (ev):

   -96.5344 -96.5186 -96.5145 -96.5144 -58.1378 -58.1365 -58.1362 -58.1362
   -58.1330 -58.1326 -58.1325 -58.1323 -58.1286 -58.1284 -58.1271 -58.1271
    -5.3051  -4.0131  -4.0131  -3.6675   1.0481   1.4267   1.4267   2.7781
     3.6797   3.6797   3.8565   4.2110   4.2110   4.4659   5.2308   6.1655

          k = 0.0000 0.7500 0.5000 (  5066 PWs)   bands (ev):

   -96.5347 -96.5346 -96.5161 -96.5160 -58.1374 -58.1373 -58.1365 -58.1360
   -58.1340 -58.1338 -58.1324 -58.1323 -58.1290 -58.1288 -58.1280 -58.1275
    -4.7431  -4.7427  -3.8221  -3.8215   1.2424   1.2453   2.5082   2.5116
     2.8496   2.8504   4.3015   4.3017   4.3697   4.3725   5.3195   5.3225

          k = 0.0000 0.7500 0.7500 (  5047 PWs)   bands (ev):

   -96.5344 -96.5186 -96.5145 -96.5144 -58.1371 -58.1368 -58.1358 -58.1357
   -58.1330 -58.1326 -58.1325 -58.1323 -58.1293 -58.1280 -58.1276 -58.1275
    -5.3053  -4.0126  -4.0126  -3.6680   1.0493   1.4243   1.4243   2.7803
     3.6796   3.6796   3.8600   4.2133   4.2133   4.4634   5.2306   6.1625

          k = 0.2500 0.0000 0.0000 (  5069 PWs)   bands (ev):

   -96.5390 -96.5258 -96.5205 -96.5203 -58.1378 -58.1370 -58.1366 -58.1365
   -58.1348 -58.1330 -58.1328 -58.1318 -58.1293 -58.1286 -58.1281 -58.1280
    -5.5081  -4.0993  -3.6185  -3.6185   0.9345   0.9345   1.5037   3.5336
     3.5336   3.6908   3.6908   4.3012   4.3035   4.9652   5.8089   5.8116

          k = 0.2500 0.0000 0.2500 (  5047 PWs)   bands (ev):

   -96.5344 -96.5186 -96.5146 -96.5144 -58.1373 -58.1368 -58.1365 -58.1359
   -58.1333 -58.1327 -58.1324 -58.1309 -58.1288 -58.1283 -58.1281 -58.1273
    -5.3052  -4.0129  -4.0128  -3.6678   1.0487   1.4255   1.4256   2.7792
     3.6794   3.6797   3.8582   4.2119   4.2121   4.4654   5.2306   6.1646

          k = 0.2500 0.0000 0.5000 (  5066 PWs)   bands (ev):

   -96.5347 -96.5346 -96.5161 -96.5160 -58.1379 -58.1378 -58.1362 -58.1361
   -58.1330 -58.1329 -58.1325 -58.1324 -58.1295 -58.1293 -58.1278 -58.1276
    -4.7429  -4.7429  -3.8218  -3.8218   1.2438   1.2438   2.5099   2.5099
     2.8499   2.8500   4.3017   4.3017   4.3713   4.3713   5.3211   5.3211

          k = 0.2500 0.0000 0.7500 (  5047 PWs)   bands (ev):

   -96.5344 -96.5186 -96.5146 -96.5144 -58.1373 -58.1368 -58.1365 -58.1359
   -58.1333 -58.1327 -58.1324 -58.1309 -58.1288 -58.1283 -58.1281 -58.1273
    -5.3052  -4.0129  -4.0128  -3.6678   1.0487   1.4255   1.4256   2.7792
     3.6794   3.6797   3.8581   4.2119   4.2121   4.4654   5.2306   6.1646

          k = 0.2500 0.2500 0.0000 (  5047 PWs)   bands (ev):

   -96.5344 -96.5186 -96.5146 -96.5144 -58.1373 -58.1368 -58.1365 -58.1359
   -58.1333 -58.1327 -58.1324 -58.1309 -58.1288 -58.1283 -58.1281 -58.1273
    -5.3052  -4.0128  -4.0128  -3.6678   1.0487   1.4255   1.4256   2.7792
     3.6794   3.6797   3.8582   4.2119   4.2121   4.4654   5.2306   6.1646

          k = 0.2500 0.2500 0.2500 (  5070 PWs)   bands (ev):

   -96.5368 -96.5229 -96.5227 -96.5227 -58.1377 -58.1375 -58.1363 -58.1363
   -58.1334 -58.1329 -58.1328 -58.1322 -58.1290 -58.1288 -58.1287 -58.1281
    -5.1167  -3.9787  -3.9783  -3.9783   1.1706   1.1707   1.1726   2.8805
     3.5061   3.5062   3.5062   4.6559   4.6578   4.6578   5.8340   5.8371

          k = 0.2500 0.2500 0.5000 (  5088 PWs)   bands (ev):

   -96.5396 -96.5395 -96.5227 -96.5225 -58.1384 -58.1377 -58.1372 -58.1367
   -58.1339 -58.1338 -58.1330 -58.1326 -58.1299 -58.1292 -58.1286 -58.1278
    -4.6051  -4.6047  -3.9429  -3.9422   0.9377   0.9401   1.7785   1.7811
     3.5531   3.5534   4.7286   4.7306   4.9717   4.9740   5.1840   5.1843

          k = 0.2500 0.2500 0.7500 (  5070 PWs)   bands (ev):

   -96.5368 -96.5229 -96.5227 -96.5227 -58.1375 -58.1373 -58.1372 -58.1368
   -58.1334 -58.1332 -58.1330 -58.1319 -58.1292 -58.1291 -58.1276 -58.1275
    -5.1165  -3.9788  -3.9787  -3.9783   1.1712   1.1731   1.1732   2.8784
     3.5039   3.5040   3.5041   4.6579   4.6579   4.6584   5.8358   5.8369

          k = 0.2500 0.5000 0.0000 (  5066 PWs)   bands (ev):

   -96.5347 -96.5346 -96.5161 -96.5160 -58.1379 -58.1378 -58.1362 -58.1361
   -58.1330 -58.1329 -58.1325 -58.1324 -58.1295 -58.1293 -58.1278 -58.1276
    -4.7429  -4.7429  -3.8218  -3.8218   1.2438   1.2438   2.5099   2.5099
     2.8499   2.8500   4.3017   4.3017   4.3713   4.3713   5.3211   5.3211

          k = 0.2500 0.5000 0.2500 (  5088 PWs)   bands (ev):

   -96.5396 -96.5395 -96.5227 -96.5225 -58.1384 -58.1377 -58.1372 -58.1367
   -58.1339 -58.1338 -58.1330 -58.1326 -58.1299 -58.1292 -58.1286 -58.1278
    -4.6051  -4.6047  -3.9429  -3.9422   0.9377   0.9401   1.7785   1.7811
     3.5531   3.5534   4.7286   4.7306   4.9717   4.9740   5.1840   5.1843

          k = 0.2500 0.5000 0.5000 (  5048 PWs)   bands (ev):

   -96.5200 -96.5198 -96.5198 -96.5198 -58.1372 -58.1371 -58.1357 -58.1356
   -58.1327 -58.1325 -58.1324 -58.1323 -58.1288 -58.1287 -58.1270 -58.1270
    -4.2671  -4.2671  -4.2664  -4.2664   1.0233   1.0234   1.0262   1.0262
     4.4350   4.4350   4.4361   4.4361   5.4390   5.4390   5.4419   5.4419

          k = 0.2500 0.5000 0.7500 (  5088 PWs)   bands (ev):

   -96.5396 -96.5395 -96.5227 -96.5225 -58.1384 -58.1377 -58.1372 -58.1367
   -58.1339 -58.1338 -58.1330 -58.1326 -58.1299 -58.1292 -58.1286 -58.1278
    -4.6051  -4.6047  -3.9429  -3.9422   0.9377   0.9401   1.7785   1.7811
     3.5531   3.5534   4.7286   4.7306   4.9717   4.9740   5.1840   5.1843

          k = 0.2500 0.7500 0.0000 (  5047 PWs)   bands (ev):

   -96.5344 -96.5186 -96.5146 -96.5144 -58.1373 -58.1368 -58.1365 -58.1359
   -58.1333 -58.1327 -58.1324 -58.1309 -58.1288 -58.1283 -58.1281 -58.1273
    -5.3052  -4.0129  -4.0128  -3.6678   1.0487   1.4255   1.4256   2.7792
     3.6794   3.6797   3.8581   4.2119   4.2121   4.4654   5.2306   6.1646

          k = 0.2500 0.7500 0.2500 (  5070 PWs)   bands (ev):

   -96.5368 -96.5229 -96.5227 -96.5227 -58.1375 -58.1373 -58.1372 -58.1368
   -58.1334 -58.1332 -58.1330 -58.1319 -58.1292 -58.1291 -58.1276 -58.1275
    -5.1165  -3.9788  -3.9787  -3.9783   1.1712   1.1731   1.1732   2.8784
     3.5039   3.5040   3.5041   4.6579   4.6579   4.6584   5.8358   5.8369

          k = 0.2500 0.7500 0.5000 (  5088 PWs)   bands (ev):

   -96.5396 -96.5395 -96.5227 -96.5225 -58.1384 -58.1377 -58.1372 -58.1367
   -58.1339 -58.1338 -58.1330 -58.1326 -58.1299 -58.1292 -58.1286 -58.1278
    -4.6051  -4.6047  -3.9429  -3.9422   0.9377   0.9401   1.7785   1.7811
     3.5531   3.5534   4.7286   4.7306   4.9717   4.9740   5.1840   5.1843

          k = 0.2500 0.7500 0.7500 (  5070 PWs)   bands (ev):

   -96.5368 -96.5229 -96.5227 -96.5227 -58.1377 -58.1375 -58.1363 -58.1363
   -58.1334 -58.1329 -58.1328 -58.1322 -58.1290 -58.1288 -58.1287 -58.1281
    -5.1167  -3.9787  -3.9783  -3.9783   1.1706   1.1707   1.1726   2.8805
     3.5061   3.5062   3.5062   4.6559   4.6578   4.6578   5.8340   5.8371

          k = 0.5000 0.0000 0.0000 (  5078 PWs)   bands (ev):

   -96.5441 -96.5440 -96.5144 -96.5143 -58.1388 -58.1387 -58.1367 -58.1367
   -58.1336 -58.1334 -58.1315 -58.1313 -58.1304 -58.1302 -58.1283 -58.1282
    -4.9077  -4.9077  -3.6005  -3.6005   1.1442   1.1442   3.0236   3.0237
     3.0913   3.0913   3.3901   3.3901   4.9339   4.9339   4.9363   4.9364

          k = 0.5000 0.0000 0.2500 (  5066 PWs)   bands (ev):

   -96.5347 -96.5346 -96.5161 -96.5160 -58.1376 -58.1375 -58.1366 -58.1365
   -58.1336 -58.1334 -58.1318 -58.1316 -58.1291 -58.1290 -58.1281 -58.1281
    -4.7429  -4.7429  -3.8218  -3.8218   1.2438   1.2438   2.5099   2.5099
     2.8500   2.8500   4.3015   4.3015   4.3713   4.3713   5.3209   5.3209

          k = 0.5000 0.0000 0.5000 (  5056 PWs)   bands (ev):

   -96.5220 -96.5218 -96.5218 -96.5217 -58.1369 -58.1367 -58.1367 -58.1367
   -58.1323 -58.1321 -58.1320 -58.1320 -58.1284 -58.1281 -58.1281 -58.1281
    -4.3108  -4.3108  -4.3108  -4.3108   1.6952   1.6952   1.6952   1.6953
     3.3528   3.3528   3.3528   3.3528   5.4029   5.4029   5.4029   5.4029

          k = 0.5000 0.0000 0.7500 (  5066 PWs)   bands (ev):

   -96.5347 -96.5346 -96.5161 -96.5160 -58.1376 -58.1375 -58.1366 -58.1365
   -58.1336 -58.1334 -58.1318 -58.1316 -58.1291 -58.1290 -58.1281 -58.1281
    -4.7429  -4.7429  -3.8218  -3.8218   1.2438   1.2438   2.5099   2.5099
     2.8500   2.8500   4.3015   4.3015   4.3713   4.3713   5.3209   5.3209

          k = 0.5000 0.2500 0.0000 (  5066 PWs)   bands (ev):

   -96.5347 -96.5346 -96.5161 -96.5160 -58.1376 -58.1375 -58.1366 -58.1365
   -58.1336 -58.1334 -58.1318 -58.1316 -58.1291 -58.1290 -58.1281 -58.1281
    -4.7429  -4.7429  -3.8218  -3.8218   1.2438   1.2438   2.5099   2.5099
     2.8500   2.8500   4.3015   4.3015   4.3713   4.3713   5.3209   5.3209

          k = 0.5000 0.2500 0.2500 (  5088 PWs)   bands (ev):

   -96.5396 -96.5395 -96.5227 -96.5226 -58.1380 -58.1379 -58.1361 -58.1360
   -58.1340 -58.1338 -58.1324 -58.1323 -58.1298 -58.1296 -58.1295 -58.1295
    -4.6051  -4.6050  -3.9423  -3.9423   0.9376   0.9377   1.7806   1.7806
     3.5549   3.5549   4.7290   4.7291   4.9740   4.9740   5.1822   5.1822

          k = 0.5000 0.2500 0.5000 (  5048 PWs)   bands (ev):

   -96.5200 -96.5198 -96.5198 -96.5198 -58.1370 -58.1369 -58.1363 -58.1362
   -58.1325 -58.1323 -58.1321 -58.1320 -58.1285 -58.1284 -58.1275 -58.1274
    -4.2670  -4.2670  -4.2665  -4.2665   1.0236   1.0236   1.0259   1.0259
     4.4344   4.4344   4.4362   4.4362   5.4410   5.4410   5.4413   5.4414

          k = 0.5000 0.2500 0.7500 (  5088 PWs)   bands (ev):

   -96.5396 -96.5395 -96.5227 -96.5225 -58.1383 -58.1381 -58.1380 -58.1380
   -58.1339 -58.1337 -58.1326 -58.1324 -58.1295 -58.1294 -58.1275 -58.1274
    -4.6048  -4.6047  -3.9428  -3.9428   0.9401   0.9401   1.7790   1.7790
     3.5516   3.5516   4.7305   4.7306   4.9722   4.9722   5.1848   5.1848

          k = 0.5000 0.5000 0.0000 (  5056 PWs)   bands (ev):

   -96.5220 -96.5218 -96.5218 -96.5217 -58.1369 -58.1367 -58.1367 -58.1367
   -58.1323 -58.1321 -58.1320 -58.1320 -58.1284 -58.1281 -58.1281 -58.1281
    -4.3108  -4.3108  -4.3108  -4.3108   1.6952   1.6952   1.6952   1.6953
     3.3528   3.3528   3.3528   3.3528   5.4029   5.4029   5.4029   5.4029

          k = 0.5000 0.5000 0.2500 (  5048 PWs)   bands (ev):

   -96.5200 -96.5198 -96.5198 -96.5198 -58.1370 -58.1369 -58.1363 -58.1362
   -58.1325 -58.1323 -58.1321 -58.1320 -58.1285 -58.1284 -58.1275 -58.1274
    -4.2670  -4.2670  -4.2665  -4.2665   1.0236   1.0236   1.0259   1.0259
     4.4344   4.4344   4.4362   4.4362   5.4410   5.4410   5.4413   5.4414

          k = 0.5000 0.5000 0.5000 (  5040 PWs)   bands (ev):

   -96.5175 -96.5172 -96.5172 -96.5172 -58.1372 -58.1371 -58.1358 -58.1357
   -58.1324 -58.1323 -58.1317 -58.1316 -58.1287 -58.1286 -58.1266 -58.1265
    -4.2208  -4.2208  -4.2200  -4.2200   0.6045   0.6045   0.6071   0.6072
     5.4794   5.4795   5.4813   5.4813   5.4824   5.4824   5.4829   5.4829

          k = 0.5000 0.5000 0.7500 (  5048 PWs)   bands (ev):

   -96.5200 -96.5198 -96.5198 -96.5198 -58.1370 -58.1369 -58.1363 -58.1362
   -58.1325 -58.1323 -58.1321 -58.1320 -58.1285 -58.1284 -58.1275 -58.1274
    -4.2670  -4.2670  -4.2665  -4.2665   1.0236   1.0236   1.0259   1.0259
     4.4344   4.4344   4.4362   4.4362   5.4410   5.4410   5.4413   5.4414

          k = 0.5000 0.7500 0.0000 (  5066 PWs)   bands (ev):

   -96.5347 -96.5346 -96.5161 -96.5160 -58.1376 -58.1375 -58.1366 -58.1365
   -58.1336 -58.1334 -58.1318 -58.1316 -58.1291 -58.1290 -58.1281 -58.1281
    -4.7429  -4.7429  -3.8218  -3.8218   1.2438   1.2438   2.5099   2.5099
     2.8500   2.8500   4.3015   4.3015   4.3713   4.3713   5.3209   5.3209

          k = 0.5000 0.7500 0.2500 (  5088 PWs)   bands (ev):

   -96.5396 -96.5395 -96.5227 -96.5225 -58.1383 -58.1381 -58.1380 -58.1380
   -58.1339 -58.1337 -58.1326 -58.1324 -58.1295 -58.1294 -58.1275 -58.1274
    -4.6048  -4.6047  -3.9428  -3.9428   0.9401   0.9401   1.7790   1.7790
     3.5516   3.5516   4.7305   4.7306   4.9722   4.9722   5.1848   5.1848

          k = 0.5000 0.7500 0.5000 (  5048 PWs)   bands (ev):

   -96.5200 -96.5198 -96.5198 -96.5198 -58.1370 -58.1369 -58.1363 -58.1362
   -58.1325 -58.1323 -58.1321 -58.1320 -58.1285 -58.1284 -58.1275 -58.1274
    -4.2670  -4.2670  -4.2665  -4.2665   1.0236   1.0236   1.0259   1.0259
     4.4344   4.4344   4.4362   4.4362   5.4410   5.4410   5.4413   5.4414

          k = 0.5000 0.7500 0.7500 (  5088 PWs)   bands (ev):

   -96.5396 -96.5395 -96.5227 -96.5226 -58.1380 -58.1379 -58.1361 -58.1360
   -58.1340 -58.1338 -58.1324 -58.1323 -58.1298 -58.1296 -58.1295 -58.1295
    -4.6051  -4.6050  -3.9423  -3.9423   0.9376   0.9377   1.7806   1.7806
     3.5549   3.5549   4.7290   4.7291   4.9740   4.9740   5.1822   5.1822

          k = 0.7500 0.0000 0.0000 (  5069 PWs)   bands (ev):

   -96.5390 -96.5258 -96.5205 -96.5203 -58.1378 -58.1370 -58.1366 -58.1365
   -58.1348 -58.1330 -58.1328 -58.1318 -58.1293 -58.1286 -58.1281 -58.1280
    -5.5081  -4.0993  -3.6185  -3.6185   0.9345   0.9345   1.5037   3.5336
     3.5336   3.6908   3.6908   4.3012   4.3035   4.9652   5.8089   5.8116

          k = 0.7500 0.0000 0.2500 (  5047 PWs)   bands (ev):

   -96.5344 -96.5186 -96.5146 -96.5144 -58.1373 -58.1368 -58.1365 -58.1359
   -58.1333 -58.1327 -58.1324 -58.1309 -58.1288 -58.1283 -58.1281 -58.1273
    -5.3052  -4.0129  -4.0128  -3.6678   1.0487   1.4255   1.4256   2.7792
     3.6794   3.6797   3.8581   4.2119   4.2121   4.4654   5.2306   6.1646

          k = 0.7500 0.0000 0.5000 (  5066 PWs)   bands (ev):

   -96.5347 -96.5346 -96.5161 -96.5160 -58.1379 -58.1378 -58.1362 -58.1361
   -58.1330 -58.1329 -58.1325 -58.1324 -58.1295 -58.1293 -58.1278 -58.1276
    -4.7429  -4.7429  -3.8218  -3.8218   1.2438   1.2438   2.5099   2.5099
     2.8499   2.8500   4.3017   4.3017   4.3713   4.3713   5.3211   5.3211

          k = 0.7500 0.0000 0.7500 (  5047 PWs)   bands (ev):

   -96.5344 -96.5186 -96.5146 -96.5144 -58.1373 -58.1368 -58.1365 -58.1359
   -58.1333 -58.1327 -58.1324 -58.1309 -58.1288 -58.1283 -58.1281 -58.1273
    -5.3052  -4.0129  -4.0128  -3.6678   1.0487   1.4255   1.4256   2.7792
     3.6794   3.6797   3.8582   4.2119   4.2121   4.4654   5.2306   6.1646

          k = 0.7500 0.2500 0.0000 (  5047 PWs)   bands (ev):

   -96.5344 -96.5186 -96.5146 -96.5144 -58.1373 -58.1368 -58.1365 -58.1359
   -58.1333 -58.1327 -58.1324 -58.1309 -58.1288 -58.1283 -58.1281 -58.1273
    -5.3052  -4.0129  -4.0128  -3.6678   1.0487   1.4255   1.4256   2.7792
     3.6794   3.6797   3.8581   4.2119   4.2121   4.4654   5.2306   6.1646

          k = 0.7500 0.2500 0.2500 (  5070 PWs)   bands (ev):

   -96.5368 -96.5229 -96.5227 -96.5227 -58.1377 -58.1375 -58.1363 -58.1363
   -58.1334 -58.1329 -58.1328 -58.1322 -58.1290 -58.1288 -58.1287 -58.1281
    -5.1167  -3.9787  -3.9783  -3.9783   1.1706   1.1707   1.1726   2.8805
     3.5061   3.5062   3.5062   4.6559   4.6578   4.6578   5.8340   5.8371

          k = 0.7500 0.2500 0.5000 (  5088 PWs)   bands (ev):

   -96.5396 -96.5395 -96.5227 -96.5225 -58.1384 -58.1377 -58.1372 -58.1367
   -58.1339 -58.1338 -58.1330 -58.1326 -58.1299 -58.1292 -58.1286 -58.1278
    -4.6051  -4.6047  -3.9429  -3.9422   0.9377   0.9401   1.7785   1.7811
     3.5531   3.5534   4.7286   4.7306   4.9717   4.9740   5.1840   5.1843

          k = 0.7500 0.2500 0.7500 (  5070 PWs)   bands (ev):

   -96.5368 -96.5229 -96.5227 -96.5227 -58.1375 -58.1373 -58.1372 -58.1368
   -58.1334 -58.1332 -58.1330 -58.1319 -58.1292 -58.1291 -58.1276 -58.1275
    -5.1165  -3.9788  -3.9787  -3.9783   1.1712   1.1731   1.1732   2.8784
     3.5039   3.5040   3.5041   4.6579   4.6579   4.6584   5.8358   5.8369

          k = 0.7500 0.5000 0.0000 (  5066 PWs)   bands (ev):

   -96.5347 -96.5346 -96.5161 -96.5160 -58.1379 -58.1378 -58.1362 -58.1361
   -58.1330 -58.1329 -58.1325 -58.1324 -58.1295 -58.1293 -58.1278 -58.1276
    -4.7429  -4.7429  -3.8218  -3.8218   1.2438   1.2438   2.5099   2.5099
     2.8499   2.8500   4.3017   4.3017   4.3713   4.3713   5.3211   5.3211

          k = 0.7500 0.5000 0.2500 (  5088 PWs)   bands (ev):

   -96.5396 -96.5395 -96.5227 -96.5225 -58.1384 -58.1377 -58.1372 -58.1367
   -58.1339 -58.1338 -58.1330 -58.1326 -58.1299 -58.1292 -58.1286 -58.1278
    -4.6051  -4.6047  -3.9429  -3.9422   0.9377   0.9401   1.7785   1.7811
     3.5531   3.5534   4.7286   4.7306   4.9717   4.9740   5.1840   5.1843

          k = 0.7500 0.5000 0.5000 (  5048 PWs)   bands (ev):

   -96.5200 -96.5198 -96.5198 -96.5198 -58.1372 -58.1371 -58.1357 -58.1356
   -58.1327 -58.1325 -58.1324 -58.1323 -58.1288 -58.1287 -58.1270 -58.1270
    -4.2671  -4.2671  -4.2664  -4.2664   1.0233   1.0234   1.0262   1.0262
     4.4350   4.4350   4.4361   4.4361   5.4390   5.4390   5.4419   5.4419

          k = 0.7500 0.5000 0.7500 (  5088 PWs)   bands (ev):

   -96.5396 -96.5395 -96.5227 -96.5225 -58.1384 -58.1377 -58.1372 -58.1367
   -58.1339 -58.1338 -58.1330 -58.1326 -58.1299 -58.1292 -58.1286 -58.1278
    -4.6051  -4.6047  -3.9429  -3.9422   0.9377   0.9401   1.7785   1.7811
     3.5531   3.5534   4.7286   4.7306   4.9717   4.9740   5.1840   5.1843

          k = 0.7500 0.7500 0.0000 (  5047 PWs)   bands (ev):

   -96.5344 -96.5186 -96.5146 -96.5144 -58.1373 -58.1368 -58.1365 -58.1359
   -58.1333 -58.1327 -58.1324 -58.1309 -58.1288 -58.1283 -58.1281 -58.1273
    -5.3052  -4.0128  -4.0128  -3.6678   1.0487   1.4255   1.4256   2.7792
     3.6794   3.6797   3.8582   4.2119   4.2121   4.4654   5.2306   6.1646

          k = 0.7500 0.7500 0.2500 (  5070 PWs)   bands (ev):

   -96.5368 -96.5229 -96.5227 -96.5227 -58.1375 -58.1373 -58.1372 -58.1368
   -58.1334 -58.1332 -58.1330 -58.1319 -58.1292 -58.1291 -58.1276 -58.1275
    -5.1165  -3.9788  -3.9787  -3.9783   1.1712   1.1731   1.1732   2.8784
     3.5039   3.5040   3.5041   4.6579   4.6579   4.6584   5.8358   5.8369

          k = 0.7500 0.7500 0.5000 (  5088 PWs)   bands (ev):

   -96.5396 -96.5395 -96.5227 -96.5225 -58.1384 -58.1377 -58.1372 -58.1367
   -58.1339 -58.1338 -58.1330 -58.1326 -58.1299 -58.1292 -58.1286 -58.1278
    -4.6051  -4.6047  -3.9429  -3.9422   0.9377   0.9401   1.7785   1.7811
     3.5531   3.5534   4.7286   4.7306   4.9717   4.9740   5.1840   5.1843

          k = 0.7500 0.7500 0.7500 (  5070 PWs)   bands (ev):

   -96.5368 -96.5229 -96.5227 -96.5227 -58.1377 -58.1375 -58.1363 -58.1363
   -58.1334 -58.1329 -58.1328 -58.1322 -58.1290 -58.1288 -58.1287 -58.1281
    -5.1167  -3.9787  -3.9783  -3.9783   1.1706   1.1707   1.1726   2.8805
     3.5061   3.5062   3.5062   4.6559   4.6578   4.6578   5.8340   5.8371

     highest occupied level (ev):     6.3338

!    total energy              =    -604.61574370 Ry
     estimated scf accuracy    <          3.5E-11 Ry

     The total energy is the sum of the following terms:
     one-electron contribution =    -427.61132479 Ry
     hartree contribution      =     185.09663504 Ry
     xc contribution           =     -75.47755620 Ry
     ewald contribution        =    -286.42828716 Ry

     convergence has been achieved in   9 iterations

     Forces acting on atoms (cartesian axes, Ry/au):

     atom    1 type  1   force =     0.00295427   -0.00002455   -0.00002450
     atom    2 type  1   force =     0.00301480    0.00003491   -0.00003930
     atom    3 type  1   force =     0.00301484   -0.00003935    0.00003485
     atom    4 type  1   force =     0.00293864    0.00003471    0.00003467
     atom    5 type  2   force =    -0.00298099   -0.00000189   -0.00000180
     atom    6 type  2   force =    -0.00298000   -0.00000062   -0.00000241
     atom    7 type  2   force =    -0.00298002   -0.00000252   -0.00000069
     atom    8 type  2   force =    -0.00298153   -0.00000069   -0.00000082
     The non-local contrib.  to forces
     atom    1 type  1   force =    -0.01787858   -0.00005426   -0.00005550
     atom    2 type  1   force =    -0.01773787    0.00007949   -0.00008452
     atom    3 type  1   force =    -0.01773765   -0.00008324    0.00008074
     atom    4 type  1   force =    -0.01790950    0.00007924    0.00008047
     atom    5 type  2   force =    -0.01125569    0.00000277    0.00000252
     atom    6 type  2   force =    -0.01125792   -0.00000054    0.00000106
     atom    7 type  2   force =    -0.01125793    0.00000125   -0.00000025
     atom    8 type  2   force =    -0.01125670   -0.00000063   -0.00000057
     The ionic contribution  to forces
     atom    1 type  1   force =     0.00000000    0.00000000    0.00000000
     atom    2 type  1   force =     0.00000000   -0.00000000    0.00000000
     atom    3 type  1   force =     0.00000000   -0.00000000    0.00000000
     atom    4 type  1   force =     0.00000000   -0.00000000    0.00000000
     atom    5 type  2   force =    -0.00000000    0.00000000   -0.00000000
     atom    6 type  2   force =    -0.00000000    0.00000000   -0.00000000
     atom    7 type  2   force =    -0.00000000    0.00000000   -0.00000000
     atom    8 type  2   force =     0.00000000    0.00000000   -0.00000000
     The local contribution  to forces
     atom    1 type  1   force =     0.00527201    0.00003344    0.00002976
     atom    2 type  1   force =     0.00520613   -0.00004476    0.00004404
     atom    3 type  1   force =     0.00520670    0.00004768   -0.00004122
     atom    4 type  1   force =     0.00528659   -0.00004435   -0.00004066
     atom    5 type  2   force =     0.00120626   -0.00000341   -0.00000254
     atom    6 type  2   force =     0.00120744    0.00000252   -0.00000151
     atom    7 type  2   force =     0.00120746   -0.00000249    0.00000150
     atom    8 type  2   force =     0.00120664    0.00000249    0.00000182
     The core correction contribution to forces
     atom    1 type  1   force =     0.00000000    0.00000000    0.00000000
     atom    2 type  1   force =     0.00000000    0.00000000    0.00000000
     atom    3 type  1   force =     0.00000000    0.00000000    0.00000000
     atom    4 type  1   force =     0.00000000    0.00000000    0.00000000
     atom    5 type  2   force =     0.00000000    0.00000000    0.00000000
     atom    6 type  2   force =     0.00000000    0.00000000    0.00000000
     atom    7 type  2   force =     0.00000000    0.00000000    0.00000000
     atom    8 type  2   force =     0.00000000    0.00000000    0.00000000
     The Hubbard contrib.    to forces
     atom    1 type  1   force =     0.00000000    0.00000000    0.00000000
     atom    2 type  1   force =     0.00000000    0.00000000    0.00000000
     atom    3 type  1   force =     0.00000000    0.00000000    0.00000000
     atom    4 type  1   force =     0.00000000    0.00000000    0.00000000
     atom    5 type  2   force =     0.00000000    0.00000000    0.00000000
     atom    6 type  2   force =     0.00000000    0.00000000    0.00000000
     atom    7 type  2   force =     0.00000000    0.00000000    0.00000000
     atom    8 type  2   force =     0.00000000    0.00000000    0.00000000
     The SCF correction term to forces
     atom    1 type  1   force =     0.00000656   -0.00000183    0.00000313
     atom    2 type  1   force =    -0.00000775    0.00000208    0.00000309
     atom    3 type  1   force =    -0.00000850   -0.00000189   -0.00000278
     atom    4 type  1   force =     0.00000727    0.00000172   -0.00000325
     atom    5 type  2   force =    -0.00000056    0.00000065    0.00000013
     atom    6 type  2   force =     0.00000147   -0.00000071   -0.00000006
     atom    7 type  2   force =     0.00000145    0.00000062   -0.00000004
     atom    8 type  2   force =    -0.00000047   -0.00000064   -0.00000018

     Total force =     0.008431     Total SCF correction =     0.000017

     Writing all to output data dir ../tmp/alas.save/
 
     init_run     :      0.75s CPU      0.78s WALL (       1 calls)
     electrons    :    190.43s CPU    193.59s WALL (       1 calls)
     forces       :      0.30s CPU      0.31s WALL (       1 calls)

     Called by init_run:
     wfcinit      :      0.72s CPU      0.74s WALL (       1 calls)
     potinit      :      0.01s CPU      0.01s WALL (       1 calls)
     hinit0       :      0.01s CPU      0.01s WALL (       1 calls)

     Called by electrons:
     c_bands      :    158.06s CPU    160.72s WALL (      30 calls)
     sum_band     :      2.96s CPU      2.99s WALL (      10 calls)
     v_of_rho     :      0.06s CPU      0.06s WALL (      10 calls)
     mix_rho      :      0.01s CPU      0.01s WALL (      10 calls)

     Called by c_bands:
     init_us_2    :      0.85s CPU      0.88s WALL (    2688 calls)
     init_us_2:cp :      0.85s CPU      0.88s WALL (    2688 calls)
     cegterg      :    148.45s CPU    151.01s WALL (    1920 calls)

     Called by *egterg:
     cdiaghg      :      3.27s CPU      3.29s WALL (    4583 calls)
     h_psi        :    140.78s CPU    143.30s WALL (    4967 calls)
     g_psi        :      0.27s CPU      0.27s WALL (    2983 calls)

     Called by h_psi:
     h_psi:calbec :      2.17s CPU      2.19s WALL (    4967 calls)
     vloc_psi     :     35.70s CPU     36.19s WALL (    4967 calls)
     add_vuspsi   :      2.01s CPU      2.03s WALL (    4967 calls)

     General routines
     calbec       :      2.32s CPU      2.35s WALL (    5223 calls)
     fft          :      0.02s CPU      0.03s WALL (     102 calls)
     ffts         :      0.00s CPU      0.00s WALL (      10 calls)
     fftw         :     33.94s CPU     34.40s WALL (  305744 calls)
     davcio       :      0.01s CPU      0.02s WALL (     128 calls)
 
     Parallel routines

     Electric-field routines
     h_epsi_set   :     23.46s CPU     23.79s WALL (      30 calls)
     h_epsi_apply :    100.69s CPU    102.67s WALL (    4903 calls)
     c_phase_fiel :      5.89s CPU      6.02s WALL (      27 calls)
 
     PWSCF        :   3m11.70s CPU   3m15.11s WALL

 
   This run was terminated on:  18:39:25  21Apr2026            

=------------------------------------------------------------------------------=
   JOB DONE.
=------------------------------------------------------------------------------=
