
     Program PWSCF v.7.2 starts on 15Apr2026 at 19:31:41 

     This program is part of the open-source Quantum ESPRESSO suite
     for quantum simulation of materials; please cite
         "P. Giannozzi et al., J. Phys.:Condens. Matter 21 395502 (2009);
         "P. Giannozzi et al., J. Phys.:Condens. Matter 29 465901 (2017);
         "P. Giannozzi et al., J. Chem. Phys. 152 154105 (2020);
          URL http://www.quantum-espresso.org", 
     in publications or presentations arising from this work. More details at
     http://www.quantum-espresso.org/quote

     Parallel version (MPI & OpenMP), running on       4 processor cores
     Number of MPI processes:                 4
     Threads/MPI process:                     1

     MPI processes distributed on     1 nodes
     5332 MiB available memory on the printing compute node when the environment starts
 
     Waiting for input...
     Reading input from standard input

     Current dimensions of program PWSCF are:
     Max number of different atomic species (ntypx) = 10
     Max number of k-points (npk) =  40000
     Max angular momentum in pseudopotentials (lmaxx) =  4
     Found identity + ( -0.5000 -0.5000  0.0000) symmetry
     This is a supercell, fractional translations are disabled
 
     R & G space division:  proc/nbgrp/npool/nimage =       4
     Subspace diagonalization in iterative solution of the eigenvalue problem:
     a serial algorithm will be used

 
     Parallelization info
     --------------------
     sticks:   dense  smooth     PW     G-vecs:    dense   smooth      PW
     Min         221     221     73                 5001     5001     971
     Max         222     222     74                 5002     5002     974
     Sum         885     885    293                20005    20005    3887
 
     Using Slab Decomposition
 


     bravais-lattice index     =            1
     lattice parameter (alat)  =      10.5800  a.u.
     unit-cell volume          =    1184.2871 (a.u.)^3
     number of atoms/cell      =            8
     number of atomic types    =            2
     number of electrons       =        64.00
     number of Kohn-Sham states=           32
     kinetic-energy cutoff     =      25.0000  Ry
     charge density cutoff     =     100.0000  Ry
     scf convergence threshold =      1.0E-08
     mixing beta               =       0.5000
     number of iterations used =            8  plain     mixing
     energy convergence thresh.=      1.0E-04
     force convergence thresh. =      1.0E-03
     Exchange-correlation= PBE
                           (   1   4   3   4   0   0   0)
     nstep                     =           50

 
     Using Berry phase electric field
     In a.u.(Ry)  cartesian system of reference
        0.0000000000
        0.0000000000
        0.0000000000
     In a.u.(Ry)  crystal system of reference
        0.0000000000
        0.0000000000
        0.0000000000
     Number of iterative cycles:   1
 

     celldm(1)=  10.580000  celldm(2)=   0.000000  celldm(3)=   0.000000
     celldm(4)=   0.000000  celldm(5)=   0.000000  celldm(6)=   0.000000

     crystal axes: (cart. coord. in units of alat)
               a(1) = (   1.000000   0.000000   0.000000 )  
               a(2) = (   0.000000   1.000000   0.000000 )  
               a(3) = (   0.000000   0.000000   1.000000 )  

     reciprocal axes: (cart. coord. in units 2 pi/alat)
               b(1) = (  1.000000  0.000000  0.000000 )  
               b(2) = (  0.000000  1.000000  0.000000 )  
               b(3) = (  0.000000  0.000000  1.000000 )  


     PseudoPot. # 1 for Al read from file:
     ../../pseudo/Al_ONCV_PBE-1.2.upf
     MD5 check sum: 2d9e7bc02555220d62fad08c3c4858e7
     Pseudo is Norm-conserving, Zval = 11.0
     Generated using ONCVPSP code by D. R. Hamann
     Using radial grid of  602 points,  4 beta functions with: 
                l(1) =   0
                l(2) =   0
                l(3) =   1
                l(4) =   1

     PseudoPot. # 2 for As read from file:
     ../../pseudo/As_ONCV_PBE-1.2.upf
     MD5 check sum: a2ff92a4799c87c945fff9e6739df4dd
     Pseudo is Norm-conserving, Zval =  5.0
     Generated using ONCVPSP code by D. R. Hamann
     Using radial grid of  602 points,  6 beta functions with: 
                l(1) =   0
                l(2) =   0
                l(3) =   1
                l(4) =   1
                l(5) =   2
                l(6) =   2

     atomic species   valence    mass     pseudopotential
        Al            11.00    26.98200     Al( 1.00)
        As             5.00    74.92200     As( 1.00)

     No symmetry found



   Cartesian axes

     site n.     atom                  positions (alat units)
         1           Al  tau(   1) = (  -0.1250000  -0.1250000  -0.1250000  )
         2           Al  tau(   2) = (   0.3750000   0.3750000  -0.1250000  )
         3           Al  tau(   3) = (   0.3750000  -0.1250000   0.3750000  )
         4           Al  tau(   4) = (  -0.1250000   0.3750000   0.3750000  )
         5           As  tau(   5) = (   0.1250000   0.1250000   0.1250000  )
         6           As  tau(   6) = (   0.6250000   0.6250000   0.1250000  )
         7           As  tau(   7) = (   0.6250000   0.1250000   0.6250000  )
         8           As  tau(   8) = (   0.1250000   0.6250000   0.6250000  )

     number of k points=    64
                       cart. coord. in units 2pi/alat
        k(    1) = (   0.0000000   0.0000000   0.0000000), wk =   0.0312500
        k(    2) = (   0.0000000   0.0000000   0.2500000), wk =   0.0312500
        k(    3) = (   0.0000000   0.0000000   0.5000000), wk =   0.0312500
        k(    4) = (   0.0000000   0.0000000   0.7500000), wk =   0.0312500
        k(    5) = (   0.0000000   0.2500000   0.0000000), wk =   0.0312500
        k(    6) = (   0.0000000   0.2500000   0.2500000), wk =   0.0312500
        k(    7) = (   0.0000000   0.2500000   0.5000000), wk =   0.0312500
        k(    8) = (   0.0000000   0.2500000   0.7500000), wk =   0.0312500
        k(    9) = (   0.0000000   0.5000000   0.0000000), wk =   0.0312500
        k(   10) = (   0.0000000   0.5000000   0.2500000), wk =   0.0312500
        k(   11) = (   0.0000000   0.5000000   0.5000000), wk =   0.0312500
        k(   12) = (   0.0000000   0.5000000   0.7500000), wk =   0.0312500
        k(   13) = (   0.0000000   0.7500000   0.0000000), wk =   0.0312500
        k(   14) = (   0.0000000   0.7500000   0.2500000), wk =   0.0312500
        k(   15) = (   0.0000000   0.7500000   0.5000000), wk =   0.0312500
        k(   16) = (   0.0000000   0.7500000   0.7500000), wk =   0.0312500
        k(   17) = (   0.2500000   0.0000000   0.0000000), wk =   0.0312500
        k(   18) = (   0.2500000   0.0000000   0.2500000), wk =   0.0312500
        k(   19) = (   0.2500000   0.0000000   0.5000000), wk =   0.0312500
        k(   20) = (   0.2500000   0.0000000   0.7500000), wk =   0.0312500
        k(   21) = (   0.2500000   0.2500000   0.0000000), wk =   0.0312500
        k(   22) = (   0.2500000   0.2500000   0.2500000), wk =   0.0312500
        k(   23) = (   0.2500000   0.2500000   0.5000000), wk =   0.0312500
        k(   24) = (   0.2500000   0.2500000   0.7500000), wk =   0.0312500
        k(   25) = (   0.2500000   0.5000000   0.0000000), wk =   0.0312500
        k(   26) = (   0.2500000   0.5000000   0.2500000), wk =   0.0312500
        k(   27) = (   0.2500000   0.5000000   0.5000000), wk =   0.0312500
        k(   28) = (   0.2500000   0.5000000   0.7500000), wk =   0.0312500
        k(   29) = (   0.2500000   0.7500000   0.0000000), wk =   0.0312500
        k(   30) = (   0.2500000   0.7500000   0.2500000), wk =   0.0312500
        k(   31) = (   0.2500000   0.7500000   0.5000000), wk =   0.0312500
        k(   32) = (   0.2500000   0.7500000   0.7500000), wk =   0.0312500
        k(   33) = (   0.5000000   0.0000000   0.0000000), wk =   0.0312500
        k(   34) = (   0.5000000   0.0000000   0.2500000), wk =   0.0312500
        k(   35) = (   0.5000000   0.0000000   0.5000000), wk =   0.0312500
        k(   36) = (   0.5000000   0.0000000   0.7500000), wk =   0.0312500
        k(   37) = (   0.5000000   0.2500000   0.0000000), wk =   0.0312500
        k(   38) = (   0.5000000   0.2500000   0.2500000), wk =   0.0312500
        k(   39) = (   0.5000000   0.2500000   0.5000000), wk =   0.0312500
        k(   40) = (   0.5000000   0.2500000   0.7500000), wk =   0.0312500
        k(   41) = (   0.5000000   0.5000000   0.0000000), wk =   0.0312500
        k(   42) = (   0.5000000   0.5000000   0.2500000), wk =   0.0312500
        k(   43) = (   0.5000000   0.5000000   0.5000000), wk =   0.0312500
        k(   44) = (   0.5000000   0.5000000   0.7500000), wk =   0.0312500
        k(   45) = (   0.5000000   0.7500000   0.0000000), wk =   0.0312500
        k(   46) = (   0.5000000   0.7500000   0.2500000), wk =   0.0312500
        k(   47) = (   0.5000000   0.7500000   0.5000000), wk =   0.0312500
        k(   48) = (   0.5000000   0.7500000   0.7500000), wk =   0.0312500
        k(   49) = (   0.7500000   0.0000000   0.0000000), wk =   0.0312500
        k(   50) = (   0.7500000   0.0000000   0.2500000), wk =   0.0312500
        k(   51) = (   0.7500000   0.0000000   0.5000000), wk =   0.0312500
        k(   52) = (   0.7500000   0.0000000   0.7500000), wk =   0.0312500
        k(   53) = (   0.7500000   0.2500000   0.0000000), wk =   0.0312500
        k(   54) = (   0.7500000   0.2500000   0.2500000), wk =   0.0312500
        k(   55) = (   0.7500000   0.2500000   0.5000000), wk =   0.0312500
        k(   56) = (   0.7500000   0.2500000   0.7500000), wk =   0.0312500
        k(   57) = (   0.7500000   0.5000000   0.0000000), wk =   0.0312500
        k(   58) = (   0.7500000   0.5000000   0.2500000), wk =   0.0312500
        k(   59) = (   0.7500000   0.5000000   0.5000000), wk =   0.0312500
        k(   60) = (   0.7500000   0.5000000   0.7500000), wk =   0.0312500
        k(   61) = (   0.7500000   0.7500000   0.0000000), wk =   0.0312500
        k(   62) = (   0.7500000   0.7500000   0.2500000), wk =   0.0312500
        k(   63) = (   0.7500000   0.7500000   0.5000000), wk =   0.0312500
        k(   64) = (   0.7500000   0.7500000   0.7500000), wk =   0.0312500

     Dense  grid:    20005 G-vectors     FFT dimensions: (  36,  36,  36)

     Estimated max dynamical RAM per process >      26.93 MB

     Estimated total dynamical RAM >     107.72 MB

     Initial potential from superposition of free atoms

     starting charge      63.5461, renormalised to      64.0000
     Starting wfcs are random

     total cpu time spent up to now is        0.9 secs

     Self-consistent Calculation

     iteration #  1     ecut=    25.00 Ry     beta= 0.50
     Davidson diagonalization with overlap
     ethr =  1.00E-02,  avg # of iterations =  8.2
 
     Expectation value of exp(iGx): (0.174716168081713,1.781010553570698E-003)
   1.00000000000000     
     Electronic Dipole per cell (Ry a.u.)  4.854775454785715E-002
     Ionic Dipole per cell (Ry a.u.)   194.510933368796     
 
     Expectation value of exp(iGx): (0.175141135932443,-1.685452183201065E-004)
   1.00000000000000     
     Electronic Dipole per cell (Ry a.u.) -4.583306835162136E-003
     Ionic Dipole per cell (Ry a.u.)   194.510933368795     
 
     Expectation value of exp(iGx): (0.174426610713397,-1.365698529808200E-003)
   1.00000000000000     
     Electronic Dipole per cell (Ry a.u.) -3.728928175432994E-002
     Ionic Dipole per cell (Ry a.u.)   194.510933368796     
Electronic Dipole on Cartesian axes
           1  4.854775454785715E-002
           2 -4.583306835162136E-003
           3 -3.728928175432994E-002
Ionic Dipole on Cartesian axes
           1   194.510933368796     
           2   194.510933368795     
           3   194.510933368796     

     total cpu time spent up to now is       11.4 secs

     total energy              =    -598.78259425 Ry
     estimated scf accuracy    <       1.40690333 Ry

     iteration #  2     ecut=    25.00 Ry     beta= 0.50
     Davidson diagonalization with overlap
     ethr =  2.20E-03,  avg # of iterations =  2.0
 
     Expectation value of exp(iGx): (0.164079967516424,7.195165082707177E-004)
   1.00000000000000     
     Electronic Dipole per cell (Ry a.u.)  2.088493896278647E-002
     Ionic Dipole per cell (Ry a.u.)   194.510933368796     
 
     Expectation value of exp(iGx): (0.164198737543207,-1.222993380422847E-004)
   1.00000000000000     
     Electronic Dipole per cell (Ry a.u.) -3.547357881251040E-003
     Ionic Dipole per cell (Ry a.u.)   194.510933368795     
 
     Expectation value of exp(iGx): (0.164058520831821,-3.682613361611238E-004)
   1.00000000000000     
     Electronic Dipole per cell (Ry a.u.) -1.069073086289899E-002
     Ionic Dipole per cell (Ry a.u.)   194.510933368796     
Electronic Dipole on Cartesian axes
           1  2.088493896278647E-002
           2 -3.547357881251040E-003
           3 -1.069073086289899E-002
Ionic Dipole on Cartesian axes
           1   194.510933368796     
           2   194.510933368795     
           3   194.510933368796     

     total cpu time spent up to now is       15.5 secs

     total energy              =    -598.86966165 Ry
     estimated scf accuracy    <       0.15176011 Ry

     iteration #  3     ecut=    25.00 Ry     beta= 0.50
     Davidson diagonalization with overlap
     ethr =  2.37E-04,  avg # of iterations =  2.0
 
     Expectation value of exp(iGx): (0.159350851976948,2.588552059797440E-004)
   1.00000000000000     
     Electronic Dipole per cell (Ry a.u.)  7.736649547936523E-003
     Ionic Dipole per cell (Ry a.u.)   194.510933368796     
 
     Expectation value of exp(iGx): (0.159473834457667,-1.373380454033292E-004)
   1.00000000000000     
     Electronic Dipole per cell (Ry a.u.) -4.101588728639743E-003
     Ionic Dipole per cell (Ry a.u.)   194.510933368795     
 
     Expectation value of exp(iGx): (0.159368347071953,-2.153651804075536E-004)
   1.00000000000000     
     Electronic Dipole per cell (Ry a.u.) -6.436117281909266E-003
     Ionic Dipole per cell (Ry a.u.)   194.510933368796     
Electronic Dipole on Cartesian axes
           1  7.736649547936523E-003
           2 -4.101588728639743E-003
           3 -6.436117281909266E-003
Ionic Dipole on Cartesian axes
           1   194.510933368796     
           2   194.510933368795     
           3   194.510933368796     

     total cpu time spent up to now is       21.4 secs

     total energy              =    -598.87901003 Ry
     estimated scf accuracy    <       0.01086783 Ry

     iteration #  4     ecut=    25.00 Ry     beta= 0.50
     Davidson diagonalization with overlap
     ethr =  1.70E-05,  avg # of iterations =  2.1
 
     Expectation value of exp(iGx): (0.158490006292421,9.128475656066987E-005)
   1.00000000000000     
     Electronic Dipole per cell (Ry a.u.)  2.743134636701561E-003
     Ionic Dipole per cell (Ry a.u.)   194.510933368796     
 
     Expectation value of exp(iGx): (0.158534621866367,-3.347752096772108E-005)
   1.00000000000000     
     Electronic Dipole per cell (Ry a.u.) -1.005726644651114E-003
     Ionic Dipole per cell (Ry a.u.)   194.510933368795     
 
     Expectation value of exp(iGx): (0.158503389568195,-2.050955581874752E-005)
   1.00000000000000     
     Electronic Dipole per cell (Ry a.u.) -6.162664020595008E-004
     Ionic Dipole per cell (Ry a.u.)   194.510933368796     
Electronic Dipole on Cartesian axes
           1  2.743134636701561E-003
           2 -1.005726644651114E-003
           3 -6.162664020595008E-004
Ionic Dipole on Cartesian axes
           1   194.510933368796     
           2   194.510933368795     
           3   194.510933368796     

     total cpu time spent up to now is       25.5 secs

     total energy              =    -598.88020534 Ry
     estimated scf accuracy    <       0.00014246 Ry

     iteration #  5     ecut=    25.00 Ry     beta= 0.50
     Davidson diagonalization with overlap
     ethr =  2.23E-07,  avg # of iterations =  4.2
 
     Expectation value of exp(iGx): (0.158121991911234,-5.522919644696542E-006)
   1.00000000000000     
     Electronic Dipole per cell (Ry a.u.) -1.663516989008613E-004
     Ionic Dipole per cell (Ry a.u.)   194.510933368796     
 
     Expectation value of exp(iGx): (0.158124112203585,7.157700838503808E-006)
   1.00000000000000     
     Electronic Dipole per cell (Ry a.u.)  2.155888198444069E-004
     Ionic Dipole per cell (Ry a.u.)   194.510933368795     
 
     Expectation value of exp(iGx): (0.158122323511710,-1.406511860976498E-005)
   1.00000000000000     
     Electronic Dipole per cell (Ry a.u.) -4.236439446061608E-004
     Ionic Dipole per cell (Ry a.u.)   194.510933368796     
Electronic Dipole on Cartesian axes
           1 -1.663516989008613E-004
           2  2.155888198444069E-004
           3 -4.236439446061608E-004
Ionic Dipole on Cartesian axes
           1   194.510933368796     
           2   194.510933368795     
           3   194.510933368796     

     total cpu time spent up to now is       32.0 secs

     total energy              =    -598.88027832 Ry
     estimated scf accuracy    <       0.00001077 Ry

     iteration #  6     ecut=    25.00 Ry     beta= 0.50
     Davidson diagonalization with overlap
     ethr =  1.68E-08,  avg # of iterations =  2.3
 
     Expectation value of exp(iGx): (0.158038553074916,-1.879258834400948E-006)
   1.00000000000000     
     Electronic Dipole per cell (Ry a.u.) -5.663362339923739E-005
     Ionic Dipole per cell (Ry a.u.)   194.510933368796     
 
     Expectation value of exp(iGx): (0.158038838794735,1.623242201746148E-006)
   1.00000000000000     
     Electronic Dipole per cell (Ry a.u.)  4.891817968682872E-005
     Ionic Dipole per cell (Ry a.u.)   194.510933368795     
 
     Expectation value of exp(iGx): (0.158037670649211,-3.770056069116526E-006)
   1.00000000000000     
     Electronic Dipole per cell (Ry a.u.) -1.136156041134721E-004
     Ionic Dipole per cell (Ry a.u.)   194.510933368796     
Electronic Dipole on Cartesian axes
           1 -5.663362339923739E-005
           2  4.891817968682872E-005
           3 -1.136156041134721E-004
Ionic Dipole on Cartesian axes
           1   194.510933368796     
           2   194.510933368795     
           3   194.510933368796     

     total cpu time spent up to now is       36.7 secs

     total energy              =    -598.88028022 Ry
     estimated scf accuracy    <       0.00000057 Ry

     iteration #  7     ecut=    25.00 Ry     beta= 0.50
     Davidson diagonalization with overlap
     ethr =  8.91E-10,  avg # of iterations =  3.6
 
     Expectation value of exp(iGx): (0.157988706074229,4.183633608410581E-007)
   1.00000000000000     
     Electronic Dipole per cell (Ry a.u.)  1.261183829591701E-005
     Ionic Dipole per cell (Ry a.u.)   194.510933368796     
 
     Expectation value of exp(iGx): (0.157988658776420,-2.428334463433143E-007)
   1.00000000000000     
     Electronic Dipole per cell (Ry a.u.) -7.320375925897656E-006
     Ionic Dipole per cell (Ry a.u.)   194.510933368795     
 
     Expectation value of exp(iGx): (0.157988582480216,4.846628824839612E-007)
   1.00000000000000     
     Electronic Dipole per cell (Ry a.u.)  1.461049235145312E-005
     Ionic Dipole per cell (Ry a.u.)   194.510933368796     
Electronic Dipole on Cartesian axes
           1  1.261183829591701E-005
           2 -7.320375925897656E-006
           3  1.461049235145312E-005
Ionic Dipole on Cartesian axes
           1   194.510933368796     
           2   194.510933368795     
           3   194.510933368796     

     total cpu time spent up to now is       42.1 secs

     total energy              =    -598.88028041 Ry
     estimated scf accuracy    <       0.00000026 Ry

     iteration #  8     ecut=    25.00 Ry     beta= 0.50
     Davidson diagonalization with overlap
     ethr =  4.07E-10,  avg # of iterations =  2.0
 
     Expectation value of exp(iGx): (0.158004948156976,2.023665239762450E-007)
   1.00000000000000     
     Electronic Dipole per cell (Ry a.u.)  6.099844684096106E-006
     Ionic Dipole per cell (Ry a.u.)   194.510933368796     
 
     Expectation value of exp(iGx): (0.158004899942365,-1.652893832741753E-007)
   1.00000000000000     
     Electronic Dipole per cell (Ry a.u.) -4.982246340714327E-006
     Ionic Dipole per cell (Ry a.u.)   194.510933368795     
 
     Expectation value of exp(iGx): (0.158004875192369,4.447042443720718E-007)
   1.00000000000000     
     Electronic Dipole per cell (Ry a.u.)  1.340452966423128E-005
     Ionic Dipole per cell (Ry a.u.)   194.510933368796     
Electronic Dipole on Cartesian axes
           1  6.099844684096106E-006
           2 -4.982246340714327E-006
           3  1.340452966423128E-005
Ionic Dipole on Cartesian axes
           1   194.510933368796     
           2   194.510933368795     
           3   194.510933368796     

     total cpu time spent up to now is       47.5 secs

     End of self-consistent calculation

          k = 0.0000 0.0000 0.0000 (  2517 PWs)   bands (ev):

  -100.2685-100.2685-100.2685 -99.9112 -60.4821 -60.4821 -60.4821 -60.2424
   -60.2424 -60.2424 -60.2424 -60.2424 -60.2424 -59.9985 -59.9985 -59.9985
    -5.6155  -3.4103  -3.4103  -3.4102   0.7453   0.7453   0.7453   4.4438
     4.4438   4.4438   4.4438   4.4438   4.4438   6.5521   6.5521   6.5521

          k = 0.0000 0.0000 0.2500 (  2501 PWs)   bands (ev):

  -100.2012-100.2012-100.1606 -99.8973 -60.3743 -60.2529 -60.2529 -60.2499
   -60.2499 -60.2499 -60.2499 -60.1438 -60.1438 -59.9817 -59.9817 -59.9641
    -5.3944  -3.9154  -3.3858  -3.3858   0.9027   0.9027   1.5346   3.8408
     3.8408   4.0440   4.0441   4.6744   4.6744   5.1322   6.0952   6.0952

          k = 0.0000 0.0000 0.5000 (  2496 PWs)   bands (ev):

  -100.2144-100.2144 -99.9767 -99.9767 -60.3018 -60.3018 -60.3017 -60.3017
   -60.2204 -60.2204 -60.0455 -60.0455 -60.0425 -60.0425 -60.0143 -60.0142
    -4.7696  -4.7696  -3.3622  -3.3621   1.1164   1.1164   3.1756   3.1756
     3.3329   3.3329   3.7684   3.7685   5.2607   5.2607   5.2607   5.2607

          k = 0.0000 0.0000 0.7500 (  2501 PWs)   bands (ev):

  -100.2012-100.2012-100.1606 -99.8973 -60.3743 -60.2529 -60.2529 -60.2499
   -60.2499 -60.2499 -60.2499 -60.1438 -60.1438 -59.9817 -59.9817 -59.9641
    -5.3944  -3.9154  -3.3858  -3.3858   0.9027   0.9027   1.5346   3.8408
     3.8408   4.0440   4.0441   4.6744   4.6744   5.1322   6.0952   6.0952

          k = 0.0000 0.2500 0.0000 (  2501 PWs)   bands (ev):

  -100.2012-100.2012-100.1606 -99.8973 -60.3743 -60.2529 -60.2529 -60.2499
   -60.2499 -60.2499 -60.2499 -60.1438 -60.1438 -59.9817 -59.9817 -59.9641
    -5.3944  -3.9154  -3.3858  -3.3858   0.9027   0.9027   1.5346   3.8408
     3.8408   4.0440   4.0441   4.6744   4.6744   5.1322   6.0952   6.0952

          k = 0.0000 0.2500 0.2500 (  2512 PWs)   bands (ev):

  -100.2555-100.2555-100.1184 -99.9717 -60.4201 -60.4201 -60.2897 -60.2897
   -60.2385 -60.2005 -60.2005 -60.1805 -60.0932 -60.0675 -60.0580 -60.0233
    -5.1815  -3.8239  -3.8238  -3.4405   1.0263   1.4457   1.4457   3.0927
     3.9854   3.9854   4.0260   4.5496   4.5497   4.8426   5.5320   6.4376

          k = 0.0000 0.2500 0.5000 (  2522 PWs)   bands (ev):

  -100.2648-100.2648-100.1075-100.1075 -60.3576 -60.3576 -60.3479 -60.3479
   -60.2231 -60.2231 -60.2068 -60.2068 -60.1833 -60.1832 -60.1349 -60.1349
    -4.5968  -4.5968  -3.6158  -3.6158   1.2416   1.2416   2.6259   2.6259
     3.1276   3.1276   4.6065   4.6065   4.7040   4.7040   5.6442   5.6442

          k = 0.0000 0.2500 0.7500 (  2512 PWs)   bands (ev):

  -100.2555-100.2555-100.1184 -99.9717 -60.4201 -60.4201 -60.2897 -60.2897
   -60.2385 -60.2005 -60.2005 -60.1805 -60.0932 -60.0675 -60.0580 -60.0233
    -5.1815  -3.8239  -3.8238  -3.4405   1.0263   1.4457   1.4457   3.0927
     3.9854   3.9854   4.0260   4.5496   4.5497   4.8426   5.5320   6.4376

          k = 0.0000 0.5000 0.0000 (  2496 PWs)   bands (ev):

  -100.2144-100.2144 -99.9767 -99.9767 -60.3018 -60.3018 -60.3017 -60.3017
   -60.2204 -60.2203 -60.0455 -60.0455 -60.0425 -60.0425 -60.0143 -60.0142
    -4.7697  -4.7696  -3.3622  -3.3621   1.1164   1.1164   3.1756   3.1757
     3.3329   3.3329   3.7684   3.7685   5.2607   5.2607   5.2607   5.2607

          k = 0.0000 0.5000 0.2500 (  2522 PWs)   bands (ev):

  -100.2648-100.2648-100.1075-100.1075 -60.3576 -60.3576 -60.3479 -60.3479
   -60.2231 -60.2231 -60.2068 -60.2068 -60.1833 -60.1832 -60.1349 -60.1349
    -4.5968  -4.5967  -3.6158  -3.6158   1.2416   1.2416   2.6259   2.6259
     3.1276   3.1276   4.6065   4.6065   4.7040   4.7040   5.6442   5.6442

          k = 0.0000 0.5000 0.5000 (  2496 PWs)   bands (ev):

  -100.1044-100.1044-100.1044-100.1044 -60.2734 -60.2733 -60.2733 -60.2733
   -60.1953 -60.1953 -60.1953 -60.1953 -60.0262 -60.0262 -60.0261 -60.0261
    -4.1440  -4.1440  -4.1440  -4.1439   1.7867   1.7867   1.7867   1.7867
     3.6391   3.6391   3.6391   3.6391   5.7503   5.7503   5.7504   5.7504

          k = 0.0000 0.5000 0.7500 (  2522 PWs)   bands (ev):

  -100.2648-100.2648-100.1075-100.1075 -60.3576 -60.3576 -60.3479 -60.3479
   -60.2231 -60.2231 -60.2068 -60.2068 -60.1833 -60.1832 -60.1349 -60.1349
    -4.5968  -4.5967  -3.6158  -3.6158   1.2416   1.2416   2.6259   2.6259
     3.1276   3.1276   4.6065   4.6065   4.7040   4.7040   5.6442   5.6442

          k = 0.0000 0.7500 0.0000 (  2501 PWs)   bands (ev):

  -100.2012-100.2012-100.1606 -99.8973 -60.3743 -60.2529 -60.2529 -60.2499
   -60.2499 -60.2499 -60.2499 -60.1438 -60.1438 -59.9817 -59.9817 -59.9641
    -5.3944  -3.9154  -3.3858  -3.3858   0.9027   0.9027   1.5346   3.8408
     3.8408   4.0440   4.0441   4.6744   4.6744   5.1322   6.0952   6.0952

          k = 0.0000 0.7500 0.2500 (  2512 PWs)   bands (ev):

  -100.2555-100.2555-100.1184 -99.9717 -60.4201 -60.4201 -60.2897 -60.2897
   -60.2385 -60.2005 -60.2005 -60.1805 -60.0932 -60.0675 -60.0580 -60.0233
    -5.1815  -3.8239  -3.8238  -3.4405   1.0263   1.4457   1.4457   3.0927
     3.9854   3.9854   4.0260   4.5496   4.5497   4.8426   5.5320   6.4376

          k = 0.0000 0.7500 0.5000 (  2522 PWs)   bands (ev):

  -100.2648-100.2648-100.1075-100.1075 -60.3576 -60.3576 -60.3479 -60.3479
   -60.2231 -60.2231 -60.2068 -60.2068 -60.1833 -60.1832 -60.1349 -60.1349
    -4.5968  -4.5968  -3.6158  -3.6158   1.2416   1.2416   2.6259   2.6259
     3.1276   3.1276   4.6065   4.6065   4.7040   4.7040   5.6442   5.6442

          k = 0.0000 0.7500 0.7500 (  2512 PWs)   bands (ev):

  -100.2555-100.2555-100.1184 -99.9717 -60.4201 -60.4201 -60.2897 -60.2897
   -60.2385 -60.2005 -60.2005 -60.1805 -60.0932 -60.0675 -60.0580 -60.0233
    -5.1815  -3.8239  -3.8238  -3.4405   1.0263   1.4457   1.4457   3.0927
     3.9854   3.9854   4.0260   4.5496   4.5497   4.8426   5.5320   6.4376

          k = 0.2500 0.0000 0.0000 (  2501 PWs)   bands (ev):

  -100.2012-100.2012-100.1606 -99.8973 -60.3743 -60.2529 -60.2529 -60.2499
   -60.2499 -60.2499 -60.2499 -60.1438 -60.1438 -59.9817 -59.9817 -59.9641
    -5.3944  -3.9154  -3.3858  -3.3858   0.9027   0.9027   1.5346   3.8408
     3.8408   4.0440   4.0441   4.6744   4.6744   5.1322   6.0952   6.0952

          k = 0.2500 0.0000 0.2500 (  2512 PWs)   bands (ev):

  -100.2555-100.2555-100.1184 -99.9717 -60.4201 -60.4201 -60.2897 -60.2897
   -60.2385 -60.2005 -60.2005 -60.1805 -60.0932 -60.0675 -60.0580 -60.0233
    -5.1815  -3.8239  -3.8238  -3.4405   1.0263   1.4457   1.4457   3.0927
     3.9854   3.9854   4.0260   4.5496   4.5497   4.8426   5.5320   6.4376

          k = 0.2500 0.0000 0.5000 (  2522 PWs)   bands (ev):

  -100.2648-100.2648-100.1075-100.1075 -60.3576 -60.3576 -60.3479 -60.3479
   -60.2231 -60.2231 -60.2068 -60.2068 -60.1833 -60.1832 -60.1349 -60.1349
    -4.5968  -4.5968  -3.6158  -3.6158   1.2416   1.2416   2.6259   2.6259
     3.1276   3.1276   4.6065   4.6065   4.7040   4.7040   5.6442   5.6442

          k = 0.2500 0.0000 0.7500 (  2512 PWs)   bands (ev):

  -100.2555-100.2555-100.1184 -99.9717 -60.4201 -60.4201 -60.2897 -60.2897
   -60.2385 -60.2005 -60.2005 -60.1805 -60.0932 -60.0675 -60.0580 -60.0233
    -5.1815  -3.8239  -3.8238  -3.4405   1.0263   1.4457   1.4457   3.0927
     3.9854   3.9854   4.0260   4.5496   4.5497   4.8426   5.5320   6.4376

          k = 0.2500 0.2500 0.0000 (  2512 PWs)   bands (ev):

  -100.2555-100.2555-100.1184 -99.9717 -60.4201 -60.4201 -60.2897 -60.2897
   -60.2385 -60.2005 -60.2005 -60.1805 -60.0932 -60.0675 -60.0580 -60.0233
    -5.1815  -3.8239  -3.8239  -3.4405   1.0263   1.4457   1.4457   3.0927
     3.9854   3.9854   4.0260   4.5496   4.5496   4.8426   5.5320   6.4376

          k = 0.2500 0.2500 0.2500 (  2494 PWs)   bands (ev):

  -100.1207-100.1207-100.1206-100.0024 -60.2562 -60.2562 -60.2562 -60.2156
   -60.1928 -60.1927 -60.1927 -60.0785 -60.0785 -60.0785 -60.0107 -60.0107
    -4.9848  -3.7832  -3.7831  -3.7831   1.2233   1.2233   1.2233   3.0427
     3.7866   3.7866   3.7866   5.0266   5.0266   5.0266   6.1436   6.1436

          k = 0.2500 0.2500 0.5000 (  2516 PWs)   bands (ev):

  -100.2802-100.2802-100.0573-100.0573 -60.4100 -60.4100 -60.3432 -60.3432
   -60.2685 -60.2685 -60.2249 -60.2249 -60.1131 -60.1131 -60.0092 -60.0092
    -4.4513  -4.4512  -3.7483  -3.7483   0.9861   0.9861   1.9091   1.9091
     3.7983   3.7983   5.0704   5.0704   5.2540   5.2540   5.5372   5.5372

          k = 0.2500 0.2500 0.7500 (  2494 PWs)   bands (ev):

  -100.1207-100.1207-100.1206-100.0024 -60.2562 -60.2562 -60.2562 -60.2156
   -60.1928 -60.1927 -60.1927 -60.0785 -60.0785 -60.0785 -60.0107 -60.0107
    -4.9848  -3.7832  -3.7831  -3.7831   1.2233   1.2233   1.2233   3.0427
     3.7866   3.7866   3.7866   5.0266   5.0266   5.0266   6.1436   6.1436

          k = 0.2500 0.5000 0.0000 (  2522 PWs)   bands (ev):

  -100.2648-100.2648-100.1075-100.1075 -60.3576 -60.3576 -60.3479 -60.3479
   -60.2231 -60.2231 -60.2068 -60.2068 -60.1833 -60.1832 -60.1349 -60.1349
    -4.5968  -4.5967  -3.6158  -3.6158   1.2416   1.2416   2.6259   2.6259
     3.1276   3.1276   4.6065   4.6065   4.7040   4.7040   5.6442   5.6442

          k = 0.2500 0.5000 0.2500 (  2516 PWs)   bands (ev):

  -100.2802-100.2802-100.0573-100.0573 -60.4100 -60.4100 -60.3432 -60.3432
   -60.2685 -60.2685 -60.2249 -60.2249 -60.1131 -60.1131 -60.0092 -60.0091
    -4.4513  -4.4512  -3.7484  -3.7483   0.9861   0.9861   1.9091   1.9091
     3.7983   3.7983   5.0704   5.0704   5.2540   5.2540   5.5372   5.5372

          k = 0.2500 0.5000 0.5000 (  2484 PWs)   bands (ev):

  -100.0647-100.0646-100.0646-100.0646 -60.2467 -60.2467 -60.2467 -60.2467
   -60.1112 -60.1112 -60.1112 -60.1112 -60.0313 -60.0313 -60.0313 -60.0313
    -4.0946  -4.0946  -4.0945  -4.0945   1.1325   1.1325   1.1325   1.1325
     4.7272   4.7272   4.7272   4.7272   5.7917   5.7917   5.7918   5.7918

          k = 0.2500 0.5000 0.7500 (  2516 PWs)   bands (ev):

  -100.2802-100.2802-100.0573-100.0573 -60.4100 -60.4100 -60.3432 -60.3432
   -60.2685 -60.2685 -60.2249 -60.2249 -60.1131 -60.1131 -60.0092 -60.0091
    -4.4513  -4.4512  -3.7484  -3.7483   0.9861   0.9861   1.9091   1.9091
     3.7982   3.7983   5.0704   5.0704   5.2540   5.2540   5.5372   5.5372

          k = 0.2500 0.7500 0.0000 (  2512 PWs)   bands (ev):

  -100.2555-100.2555-100.1184 -99.9717 -60.4201 -60.4201 -60.2897 -60.2897
   -60.2385 -60.2005 -60.2005 -60.1805 -60.0932 -60.0675 -60.0580 -60.0233
    -5.1815  -3.8239  -3.8239  -3.4405   1.0263   1.4457   1.4457   3.0927
     3.9854   3.9854   4.0260   4.5496   4.5496   4.8426   5.5320   6.4376

          k = 0.2500 0.7500 0.2500 (  2494 PWs)   bands (ev):

  -100.1207-100.1207-100.1206-100.0024 -60.2562 -60.2562 -60.2562 -60.2156
   -60.1928 -60.1927 -60.1927 -60.0785 -60.0785 -60.0785 -60.0107 -60.0107
    -4.9848  -3.7832  -3.7831  -3.7831   1.2233   1.2233   1.2233   3.0427
     3.7866   3.7866   3.7866   5.0266   5.0266   5.0266   6.1436   6.1436

          k = 0.2500 0.7500 0.5000 (  2516 PWs)   bands (ev):

  -100.2802-100.2802-100.0573-100.0573 -60.4100 -60.4100 -60.3432 -60.3432
   -60.2685 -60.2685 -60.2249 -60.2249 -60.1131 -60.1131 -60.0092 -60.0092
    -4.4513  -4.4512  -3.7483  -3.7483   0.9861   0.9861   1.9091   1.9091
     3.7983   3.7983   5.0704   5.0704   5.2540   5.2540   5.5372   5.5372

          k = 0.2500 0.7500 0.7500 (  2494 PWs)   bands (ev):

  -100.1207-100.1207-100.1206-100.0024 -60.2562 -60.2562 -60.2562 -60.2156
   -60.1928 -60.1927 -60.1927 -60.0785 -60.0785 -60.0785 -60.0107 -60.0107
    -4.9848  -3.7832  -3.7831  -3.7831   1.2233   1.2233   1.2233   3.0427
     3.7866   3.7866   3.7866   5.0266   5.0266   5.0266   6.1436   6.1436

          k = 0.5000 0.0000 0.0000 (  2496 PWs)   bands (ev):

  -100.2144-100.2144 -99.9767 -99.9767 -60.3018 -60.3018 -60.3017 -60.3017
   -60.2204 -60.2204 -60.0455 -60.0455 -60.0425 -60.0425 -60.0143 -60.0142
    -4.7697  -4.7696  -3.3622  -3.3621   1.1164   1.1164   3.1756   3.1757
     3.3329   3.3329   3.7684   3.7685   5.2607   5.2607   5.2607   5.2608

          k = 0.5000 0.0000 0.2500 (  2522 PWs)   bands (ev):

  -100.2648-100.2648-100.1075-100.1075 -60.3576 -60.3576 -60.3479 -60.3479
   -60.2231 -60.2231 -60.2068 -60.2068 -60.1833 -60.1833 -60.1349 -60.1349
    -4.5968  -4.5967  -3.6158  -3.6157   1.2416   1.2416   2.6259   2.6259
     3.1276   3.1276   4.6064   4.6065   4.7040   4.7040   5.6442   5.6442

          k = 0.5000 0.0000 0.5000 (  2496 PWs)   bands (ev):

  -100.1044-100.1044-100.1044-100.1044 -60.2734 -60.2733 -60.2733 -60.2733
   -60.1953 -60.1953 -60.1953 -60.1953 -60.0262 -60.0262 -60.0261 -60.0261
    -4.1440  -4.1440  -4.1440  -4.1439   1.7867   1.7867   1.7867   1.7867
     3.6391   3.6391   3.6391   3.6391   5.7503   5.7503   5.7503   5.7503

          k = 0.5000 0.0000 0.7500 (  2522 PWs)   bands (ev):

  -100.2648-100.2648-100.1075-100.1075 -60.3576 -60.3576 -60.3479 -60.3479
   -60.2231 -60.2231 -60.2068 -60.2068 -60.1833 -60.1833 -60.1349 -60.1349
    -4.5968  -4.5967  -3.6158  -3.6157   1.2416   1.2416   2.6259   2.6259
     3.1276   3.1276   4.6064   4.6065   4.7040   4.7040   5.6442   5.6442

          k = 0.5000 0.2500 0.0000 (  2522 PWs)   bands (ev):

  -100.2648-100.2648-100.1075-100.1075 -60.3576 -60.3576 -60.3479 -60.3479
   -60.2231 -60.2231 -60.2068 -60.2068 -60.1833 -60.1832 -60.1349 -60.1349
    -4.5968  -4.5967  -3.6158  -3.6157   1.2416   1.2416   2.6259   2.6259
     3.1276   3.1276   4.6064   4.6065   4.7040   4.7040   5.6442   5.6442

          k = 0.5000 0.2500 0.2500 (  2516 PWs)   bands (ev):

  -100.2802-100.2802-100.0573-100.0573 -60.4100 -60.4100 -60.3432 -60.3432
   -60.2685 -60.2685 -60.2249 -60.2249 -60.1131 -60.1131 -60.0092 -60.0091
    -4.4513  -4.4512  -3.7484  -3.7483   0.9861   0.9861   1.9091   1.9091
     3.7982   3.7983   5.0704   5.0704   5.2540   5.2540   5.5372   5.5372

          k = 0.5000 0.2500 0.5000 (  2484 PWs)   bands (ev):

  -100.0647-100.0646-100.0646-100.0646 -60.2467 -60.2467 -60.2467 -60.2467
   -60.1112 -60.1112 -60.1112 -60.1112 -60.0313 -60.0313 -60.0313 -60.0312
    -4.0946  -4.0946  -4.0945  -4.0945   1.1325   1.1325   1.1325   1.1325
     4.7272   4.7272   4.7272   4.7272   5.7917   5.7917   5.7917   5.7918

          k = 0.5000 0.2500 0.7500 (  2516 PWs)   bands (ev):

  -100.2802-100.2802-100.0573-100.0573 -60.4100 -60.4100 -60.3432 -60.3432
   -60.2685 -60.2685 -60.2249 -60.2249 -60.1131 -60.1131 -60.0092 -60.0092
    -4.4513  -4.4512  -3.7484  -3.7483   0.9861   0.9861   1.9091   1.9091
     3.7982   3.7983   5.0704   5.0704   5.2540   5.2540   5.5372   5.5372

          k = 0.5000 0.5000 0.0000 (  2496 PWs)   bands (ev):

  -100.1044-100.1044-100.1044-100.1044 -60.2734 -60.2733 -60.2733 -60.2733
   -60.1953 -60.1953 -60.1953 -60.1953 -60.0262 -60.0262 -60.0261 -60.0261
    -4.1440  -4.1440  -4.1440  -4.1439   1.7867   1.7867   1.7867   1.7867
     3.6391   3.6391   3.6391   3.6391   5.7503   5.7503   5.7503   5.7503

          k = 0.5000 0.5000 0.2500 (  2484 PWs)   bands (ev):

  -100.0647-100.0646-100.0646-100.0646 -60.2467 -60.2467 -60.2467 -60.2467
   -60.1112 -60.1112 -60.1112 -60.1112 -60.0313 -60.0313 -60.0313 -60.0313
    -4.0946  -4.0946  -4.0945  -4.0945   1.1325   1.1325   1.1325   1.1325
     4.7272   4.7272   4.7272   4.7273   5.7917   5.7917   5.7917   5.7917

          k = 0.5000 0.5000 0.5000 (  2512 PWs)   bands (ev):

  -100.1647-100.1647-100.1647-100.1647 -60.4891 -60.4891 -60.4891 -60.4890
   -60.1011 -60.1011 -60.1011 -60.1011 -60.1011 -60.1011 -60.1011 -60.1011
    -4.0477  -4.0476  -4.0476  -4.0476   0.6940   0.6940   0.6940   0.6940
     5.8214   5.8214   5.8214   5.8215   5.8215   5.8215   5.8215   5.8215

          k = 0.5000 0.5000 0.7500 (  2484 PWs)   bands (ev):

  -100.0647-100.0646-100.0646-100.0646 -60.2467 -60.2467 -60.2467 -60.2467
   -60.1112 -60.1112 -60.1112 -60.1112 -60.0313 -60.0313 -60.0313 -60.0313
    -4.0946  -4.0946  -4.0945  -4.0945   1.1325   1.1325   1.1325   1.1325
     4.7272   4.7272   4.7272   4.7273   5.7917   5.7917   5.7917   5.7917

          k = 0.5000 0.7500 0.0000 (  2522 PWs)   bands (ev):

  -100.2648-100.2648-100.1075-100.1075 -60.3576 -60.3576 -60.3479 -60.3479
   -60.2231 -60.2231 -60.2068 -60.2068 -60.1833 -60.1832 -60.1349 -60.1349
    -4.5968  -4.5967  -3.6158  -3.6157   1.2416   1.2416   2.6259   2.6259
     3.1276   3.1276   4.6064   4.6065   4.7040   4.7040   5.6442   5.6442

          k = 0.5000 0.7500 0.2500 (  2516 PWs)   bands (ev):

  -100.2802-100.2802-100.0573-100.0573 -60.4100 -60.4100 -60.3432 -60.3432
   -60.2685 -60.2685 -60.2249 -60.2249 -60.1131 -60.1131 -60.0092 -60.0092
    -4.4513  -4.4512  -3.7484  -3.7483   0.9861   0.9861   1.9091   1.9091
     3.7982   3.7983   5.0704   5.0704   5.2540   5.2540   5.5372   5.5372

          k = 0.5000 0.7500 0.5000 (  2484 PWs)   bands (ev):

  -100.0647-100.0646-100.0646-100.0646 -60.2467 -60.2467 -60.2467 -60.2467
   -60.1112 -60.1112 -60.1112 -60.1112 -60.0313 -60.0313 -60.0313 -60.0312
    -4.0946  -4.0946  -4.0945  -4.0945   1.1325   1.1325   1.1325   1.1325
     4.7272   4.7272   4.7272   4.7272   5.7917   5.7917   5.7917   5.7918

          k = 0.5000 0.7500 0.7500 (  2516 PWs)   bands (ev):

  -100.2802-100.2802-100.0573-100.0573 -60.4100 -60.4100 -60.3432 -60.3432
   -60.2685 -60.2685 -60.2249 -60.2249 -60.1131 -60.1131 -60.0092 -60.0091
    -4.4513  -4.4512  -3.7484  -3.7483   0.9861   0.9861   1.9091   1.9091
     3.7982   3.7983   5.0704   5.0704   5.2540   5.2540   5.5372   5.5372

          k = 0.7500 0.0000 0.0000 (  2501 PWs)   bands (ev):

  -100.2012-100.2012-100.1606 -99.8973 -60.3743 -60.2529 -60.2529 -60.2499
   -60.2499 -60.2499 -60.2499 -60.1438 -60.1438 -59.9817 -59.9817 -59.9641
    -5.3944  -3.9154  -3.3858  -3.3858   0.9027   0.9027   1.5346   3.8408
     3.8408   4.0440   4.0441   4.6744   4.6744   5.1322   6.0952   6.0952

          k = 0.7500 0.0000 0.2500 (  2512 PWs)   bands (ev):

  -100.2555-100.2555-100.1184 -99.9717 -60.4201 -60.4201 -60.2897 -60.2897
   -60.2385 -60.2005 -60.2005 -60.1805 -60.0932 -60.0675 -60.0580 -60.0233
    -5.1815  -3.8239  -3.8238  -3.4405   1.0263   1.4457   1.4457   3.0927
     3.9854   3.9854   4.0260   4.5496   4.5497   4.8426   5.5320   6.4376

          k = 0.7500 0.0000 0.5000 (  2522 PWs)   bands (ev):

  -100.2648-100.2648-100.1075-100.1075 -60.3576 -60.3576 -60.3479 -60.3479
   -60.2231 -60.2231 -60.2068 -60.2068 -60.1833 -60.1832 -60.1349 -60.1349
    -4.5968  -4.5968  -3.6158  -3.6158   1.2416   1.2416   2.6259   2.6259
     3.1276   3.1276   4.6065   4.6065   4.7040   4.7040   5.6442   5.6442

          k = 0.7500 0.0000 0.7500 (  2512 PWs)   bands (ev):

  -100.2555-100.2555-100.1184 -99.9717 -60.4201 -60.4201 -60.2897 -60.2897
   -60.2385 -60.2005 -60.2005 -60.1805 -60.0932 -60.0675 -60.0580 -60.0233
    -5.1815  -3.8239  -3.8238  -3.4405   1.0263   1.4457   1.4457   3.0927
     3.9854   3.9854   4.0260   4.5496   4.5497   4.8426   5.5320   6.4376

          k = 0.7500 0.2500 0.0000 (  2512 PWs)   bands (ev):

  -100.2555-100.2555-100.1184 -99.9717 -60.4201 -60.4201 -60.2897 -60.2897
   -60.2385 -60.2005 -60.2005 -60.1805 -60.0932 -60.0675 -60.0580 -60.0233
    -5.1815  -3.8239  -3.8239  -3.4405   1.0263   1.4457   1.4457   3.0927
     3.9854   3.9854   4.0260   4.5496   4.5496   4.8426   5.5320   6.4376

          k = 0.7500 0.2500 0.2500 (  2494 PWs)   bands (ev):

  -100.1207-100.1207-100.1206-100.0024 -60.2562 -60.2562 -60.2562 -60.2156
   -60.1928 -60.1927 -60.1927 -60.0785 -60.0785 -60.0785 -60.0107 -60.0107
    -4.9848  -3.7832  -3.7831  -3.7831   1.2233   1.2233   1.2233   3.0427
     3.7866   3.7866   3.7866   5.0266   5.0266   5.0266   6.1436   6.1436

          k = 0.7500 0.2500 0.5000 (  2516 PWs)   bands (ev):

  -100.2802-100.2802-100.0573-100.0573 -60.4100 -60.4100 -60.3432 -60.3432
   -60.2685 -60.2685 -60.2249 -60.2249 -60.1131 -60.1131 -60.0092 -60.0092
    -4.4513  -4.4512  -3.7483  -3.7483   0.9861   0.9861   1.9091   1.9091
     3.7983   3.7983   5.0704   5.0704   5.2540   5.2540   5.5372   5.5372

          k = 0.7500 0.2500 0.7500 (  2494 PWs)   bands (ev):

  -100.1207-100.1207-100.1206-100.0024 -60.2562 -60.2562 -60.2562 -60.2156
   -60.1928 -60.1927 -60.1927 -60.0785 -60.0785 -60.0785 -60.0107 -60.0107
    -4.9848  -3.7832  -3.7831  -3.7831   1.2233   1.2233   1.2233   3.0427
     3.7866   3.7866   3.7866   5.0266   5.0266   5.0266   6.1436   6.1436

          k = 0.7500 0.5000 0.0000 (  2522 PWs)   bands (ev):

  -100.2648-100.2648-100.1075-100.1075 -60.3576 -60.3576 -60.3479 -60.3479
   -60.2231 -60.2231 -60.2068 -60.2068 -60.1833 -60.1832 -60.1349 -60.1349
    -4.5968  -4.5967  -3.6158  -3.6158   1.2416   1.2416   2.6259   2.6259
     3.1276   3.1276   4.6065   4.6065   4.7040   4.7040   5.6442   5.6442

          k = 0.7500 0.5000 0.2500 (  2516 PWs)   bands (ev):

  -100.2802-100.2802-100.0573-100.0573 -60.4100 -60.4100 -60.3432 -60.3432
   -60.2685 -60.2685 -60.2249 -60.2249 -60.1131 -60.1131 -60.0092 -60.0091
    -4.4513  -4.4512  -3.7484  -3.7483   0.9861   0.9861   1.9091   1.9091
     3.7982   3.7983   5.0704   5.0704   5.2540   5.2540   5.5372   5.5372

          k = 0.7500 0.5000 0.5000 (  2484 PWs)   bands (ev):

  -100.0647-100.0646-100.0646-100.0646 -60.2467 -60.2467 -60.2467 -60.2467
   -60.1112 -60.1112 -60.1112 -60.1112 -60.0313 -60.0313 -60.0313 -60.0313
    -4.0946  -4.0946  -4.0945  -4.0945   1.1325   1.1325   1.1325   1.1325
     4.7272   4.7272   4.7272   4.7272   5.7917   5.7917   5.7918   5.7918

          k = 0.7500 0.5000 0.7500 (  2516 PWs)   bands (ev):

  -100.2802-100.2802-100.0573-100.0573 -60.4100 -60.4100 -60.3432 -60.3432
   -60.2685 -60.2685 -60.2249 -60.2249 -60.1131 -60.1131 -60.0092 -60.0091
    -4.4513  -4.4512  -3.7484  -3.7483   0.9861   0.9861   1.9091   1.9091
     3.7983   3.7983   5.0704   5.0704   5.2540   5.2540   5.5372   5.5372

          k = 0.7500 0.7500 0.0000 (  2512 PWs)   bands (ev):

  -100.2555-100.2555-100.1184 -99.9717 -60.4201 -60.4201 -60.2897 -60.2897
   -60.2385 -60.2005 -60.2005 -60.1805 -60.0932 -60.0675 -60.0580 -60.0233
    -5.1815  -3.8239  -3.8239  -3.4405   1.0263   1.4457   1.4457   3.0927
     3.9854   3.9854   4.0260   4.5496   4.5496   4.8426   5.5320   6.4376

          k = 0.7500 0.7500 0.2500 (  2494 PWs)   bands (ev):

  -100.1207-100.1207-100.1206-100.0024 -60.2562 -60.2562 -60.2562 -60.2156
   -60.1928 -60.1927 -60.1927 -60.0785 -60.0785 -60.0785 -60.0107 -60.0107
    -4.9848  -3.7832  -3.7831  -3.7831   1.2233   1.2233   1.2233   3.0427
     3.7866   3.7866   3.7866   5.0266   5.0266   5.0266   6.1436   6.1436

          k = 0.7500 0.7500 0.5000 (  2516 PWs)   bands (ev):

  -100.2802-100.2802-100.0573-100.0573 -60.4100 -60.4100 -60.3432 -60.3432
   -60.2685 -60.2685 -60.2249 -60.2249 -60.1131 -60.1131 -60.0092 -60.0092
    -4.4513  -4.4512  -3.7483  -3.7483   0.9861   0.9861   1.9091   1.9091
     3.7983   3.7983   5.0704   5.0704   5.2540   5.2540   5.5372   5.5372

          k = 0.7500 0.7500 0.7500 (  2494 PWs)   bands (ev):

  -100.1207-100.1207-100.1206-100.0024 -60.2562 -60.2562 -60.2562 -60.2156
   -60.1928 -60.1927 -60.1927 -60.0785 -60.0785 -60.0785 -60.0107 -60.0107
    -4.9848  -3.7832  -3.7831  -3.7831   1.2233   1.2233   1.2233   3.0427
     3.7866   3.7866   3.7866   5.0266   5.0266   5.0266   6.1436   6.1436

     highest occupied level (ev):     6.5521

!    total energy              =    -598.88028045 Ry
     estimated scf accuracy    <          5.7E-09 Ry

     The total energy is the sum of the following terms:
     one-electron contribution =    -412.42840913 Ry
     hartree contribution      =     173.81998780 Ry
     xc contribution           =     -73.84357195 Ry
     ewald contribution        =    -286.42828717 Ry

     convergence has been achieved in   8 iterations

     Forces acting on atoms (cartesian axes, Ry/au):

     atom    1 type  1   force =     0.00000430    0.00000257    0.00000050
     atom    2 type  1   force =    -0.00000520   -0.00000394   -0.00000287
     atom    3 type  1   force =    -0.00000590    0.00000214    0.00000172
     atom    4 type  1   force =     0.00000539   -0.00000232    0.00000293
     atom    5 type  2   force =     0.00000057    0.00000069    0.00000057
     atom    6 type  2   force =     0.00000014    0.00000009    0.00000067
     atom    7 type  2   force =     0.00000023    0.00000098   -0.00000158
     atom    8 type  2   force =     0.00000048   -0.00000020   -0.00000195
     The non-local contrib.  to forces
     atom    1 type  1   force =    -0.00000183    0.00000003    0.00000157
     atom    2 type  1   force =     0.00000338    0.00000102    0.00000102
     atom    3 type  1   force =     0.00000286   -0.00000100   -0.00000204
     atom    4 type  1   force =    -0.00000384    0.00000059   -0.00000070
     atom    5 type  2   force =     0.00000219   -0.00000058   -0.00000095
     atom    6 type  2   force =    -0.00000073    0.00000017   -0.00000183
     atom    7 type  2   force =    -0.00000109   -0.00000132    0.00000369
     atom    8 type  2   force =     0.00000214    0.00000016    0.00000237
     The ionic contribution  to forces
     atom    1 type  1   force =     0.00000000    0.00000000   -0.00000000
     atom    2 type  1   force =     0.00000000   -0.00000000   -0.00000000
     atom    3 type  1   force =     0.00000000   -0.00000000   -0.00000000
     atom    4 type  1   force =    -0.00000000   -0.00000000   -0.00000000
     atom    5 type  2   force =     0.00000000    0.00000000   -0.00000000
     atom    6 type  2   force =     0.00000000    0.00000000   -0.00000000
     atom    7 type  2   force =     0.00000000    0.00000000    0.00000000
     atom    8 type  2   force =     0.00000000    0.00000000    0.00000000
     The local contribution  to forces
     atom    1 type  1   force =    -0.00000093    0.00000222    0.00000304
     atom    2 type  1   force =     0.00000500    0.00000131    0.00000296
     atom    3 type  1   force =     0.00000536   -0.00000244   -0.00000609
     atom    4 type  1   force =    -0.00000618    0.00000138   -0.00000213
     atom    5 type  2   force =    -0.00000677   -0.00000016    0.00000329
     atom    6 type  2   force =     0.00000397    0.00000024    0.00000534
     atom    7 type  2   force =     0.00000487    0.00000228   -0.00000867
     atom    8 type  2   force =    -0.00000636    0.00000060   -0.00000721
     The core correction contribution to forces
     atom    1 type  1   force =     0.00000000    0.00000000    0.00000000
     atom    2 type  1   force =     0.00000000    0.00000000    0.00000000
     atom    3 type  1   force =     0.00000000    0.00000000    0.00000000
     atom    4 type  1   force =     0.00000000    0.00000000    0.00000000
     atom    5 type  2   force =     0.00000000    0.00000000    0.00000000
     atom    6 type  2   force =     0.00000000    0.00000000    0.00000000
     atom    7 type  2   force =     0.00000000    0.00000000    0.00000000
     atom    8 type  2   force =     0.00000000    0.00000000    0.00000000
     The Hubbard contrib.    to forces
     atom    1 type  1   force =     0.00000000    0.00000000    0.00000000
     atom    2 type  1   force =     0.00000000    0.00000000    0.00000000
     atom    3 type  1   force =     0.00000000    0.00000000    0.00000000
     atom    4 type  1   force =     0.00000000    0.00000000    0.00000000
     atom    5 type  2   force =     0.00000000    0.00000000    0.00000000
     atom    6 type  2   force =     0.00000000    0.00000000    0.00000000
     atom    7 type  2   force =     0.00000000    0.00000000    0.00000000
     atom    8 type  2   force =     0.00000000    0.00000000    0.00000000
     The SCF correction term to forces
     atom    1 type  1   force =     0.00000667    0.00000001   -0.00000371
     atom    2 type  1   force =    -0.00001398   -0.00000659   -0.00000645
     atom    3 type  1   force =    -0.00001451    0.00000527    0.00001025
     atom    4 type  1   force =     0.00001502   -0.00000460    0.00000616
     atom    5 type  2   force =     0.00000475    0.00000112   -0.00000137
     atom    6 type  2   force =    -0.00000349   -0.00000063   -0.00000244
     atom    7 type  2   force =    -0.00000394   -0.00000029    0.00000380
     atom    8 type  2   force =     0.00000431   -0.00000127    0.00000328

     Total force =     0.000013     Total SCF correction =     0.000033
     SCF correction compared to forces is large: reduce conv_thr to get better values

     BFGS Geometry Optimization
     Energy error            =      0.0E+00 Ry
     Gradient error          =      5.9E-06 Ry/Bohr

     bfgs converged in   1 scf cycles and   0 bfgs steps
     (criteria: energy <  1.0E-04 Ry, force <  1.0E-03 Ry/Bohr)

     End of BFGS Geometry Optimization

     Final energy             =    -598.8802804496 Ry
Begin final coordinates

ATOMIC_POSITIONS (alat)
Al           -0.1250000000       -0.1250000000       -0.1250000000
Al            0.3750000000        0.3750000000       -0.1250000000
Al            0.3750000000       -0.1250000000        0.3750000000
Al           -0.1250000000        0.3750000000        0.3750000000
As            0.1250000000        0.1250000000        0.1250000000
As            0.6250000000        0.6250000000        0.1250000000
As            0.6250000000        0.1250000000        0.6250000000
As            0.1250000000        0.6250000000        0.6250000000
End final coordinates



     Writing all to output data dir ../tmp/alas.save/
 
     init_run     :      0.76s CPU      0.85s WALL (       1 calls)
     electrons    :     41.59s CPU     46.57s WALL (       1 calls)
     forces       :      0.50s CPU      0.57s WALL (       1 calls)

     Called by init_run:
     wfcinit      :      0.72s CPU      0.80s WALL (       1 calls)
     potinit      :      0.01s CPU      0.01s WALL (       1 calls)
     hinit0       :      0.01s CPU      0.02s WALL (       1 calls)

     Called by electrons:
     c_bands      :     30.54s CPU     34.24s WALL (       8 calls)
     sum_band     :      3.34s CPU      3.85s WALL (       8 calls)
     v_of_rho     :      0.07s CPU      0.08s WALL (       9 calls)
     mix_rho      :      0.01s CPU      0.01s WALL (       8 calls)

     Called by c_bands:
     init_us_2    :      0.65s CPU      0.68s WALL (    1152 calls)
     init_us_2:cp :      0.65s CPU      0.68s WALL (    1152 calls)
     cegterg      :     26.18s CPU     29.78s WALL (     512 calls)

     Called by *egterg:
     cdiaghg      :      4.18s CPU      4.32s WALL (    2204 calls)
     h_psi        :     18.22s CPU     21.21s WALL (    2268 calls)
     g_psi        :      0.14s CPU      0.14s WALL (    1692 calls)

     Called by h_psi:
     h_psi:calbec :      1.54s CPU      1.78s WALL (    2268 calls)
     vloc_psi     :     15.29s CPU     17.98s WALL (    2268 calls)
     add_vuspsi   :      1.27s CPU      1.30s WALL (    2268 calls)

     General routines
     calbec       :      1.79s CPU      2.09s WALL (    2524 calls)
     fft          :      0.03s CPU      0.04s WALL (      91 calls)
     ffts         :      0.00s CPU      0.00s WALL (       8 calls)
     fftw         :     15.27s CPU     18.19s WALL (  121728 calls)
 
     Parallel routines

     Electric-field routines
     c_phase_fiel :      7.62s CPU      8.38s WALL (      24 calls)
 
     PWSCF        :     43.02s CPU     48.28s WALL

 
   This run was terminated on:  19:32:30  15Apr2026            

=------------------------------------------------------------------------------=
   JOB DONE.
=------------------------------------------------------------------------------=
