
     Program PWSCF v.7.2 starts on 21Apr2026 at 18:39:58 

     This program is part of the open-source Quantum ESPRESSO suite
     for quantum simulation of materials; please cite
         "P. Giannozzi et al., J. Phys.:Condens. Matter 21 395502 (2009);
         "P. Giannozzi et al., J. Phys.:Condens. Matter 29 465901 (2017);
         "P. Giannozzi et al., J. Chem. Phys. 152 154105 (2020);
          URL http://www.quantum-espresso.org", 
     in publications or presentations arising from this work. More details at
     http://www.quantum-espresso.org/quote

     Parallel version (MPI & OpenMP), running on       4 processor cores
     Number of MPI processes:                 4
     Threads/MPI process:                     1

     MPI processes distributed on     1 nodes
     57478 MiB available memory on the printing compute node when the environment starts
 
     Waiting for input...
     Reading input from standard input

     Current dimensions of program PWSCF are:
     Max number of different atomic species (ntypx) = 10
     Max number of k-points (npk) =  40000
     Max angular momentum in pseudopotentials (lmaxx) =  4
     Found identity + ( -0.5000 -0.5000  0.0000) symmetry
     This is a supercell, fractional translations are disabled
 
     R & G space division:  proc/nbgrp/npool/nimage =       4
     Subspace diagonalization in iterative solution of the eigenvalue problem:
     a serial algorithm will be used

 
     Parallelization info
     --------------------
     sticks:   dense  smooth     PW     G-vecs:    dense   smooth      PW
     Min         358     358    109                10120    10120    1779
     Max         359     359    110                10123    10123    1784
     Sum        1433    1433    437                40483    40483    7123
 
     Using Slab Decomposition
 


     bravais-lattice index     =            1
     lattice parameter (alat)  =      10.5800  a.u.
     unit-cell volume          =    1184.2871 (a.u.)^3
     number of atoms/cell      =            8
     number of atomic types    =            2
     number of electrons       =        64.00
     number of Kohn-Sham states=           32
     kinetic-energy cutoff     =      40.0000  Ry
     charge density cutoff     =     160.0000  Ry
     scf convergence threshold =      1.0E-08
     mixing beta               =       0.5000
     number of iterations used =            8  plain     mixing
     energy convergence thresh.=      1.0E-04
     force convergence thresh. =      1.0E-03
     Exchange-correlation= PBE
                           (   1   4   3   4   0   0   0)
     nstep                     =           50

 
     Using Berry phase electric field
     In a.u.(Ry)  cartesian system of reference
        0.0010000000
        0.0000000000
        0.0000000000
     In a.u.(Ry)  crystal system of reference
        0.0010000000
        0.0000000000
        0.0000000000
     Number of iterative cycles:   3
 

     celldm(1)=  10.580000  celldm(2)=   0.000000  celldm(3)=   0.000000
     celldm(4)=   0.000000  celldm(5)=   0.000000  celldm(6)=   0.000000

     crystal axes: (cart. coord. in units of alat)
               a(1) = (   1.000000   0.000000   0.000000 )  
               a(2) = (   0.000000   1.000000   0.000000 )  
               a(3) = (   0.000000   0.000000   1.000000 )  

     reciprocal axes: (cart. coord. in units 2 pi/alat)
               b(1) = (  1.000000  0.000000  0.000000 )  
               b(2) = (  0.000000  1.000000  0.000000 )  
               b(3) = (  0.000000  0.000000  1.000000 )  


     PseudoPot. # 1 for Al read from file:
     ../../pseudo/Al_ONCV_PBE-1.2.upf
     MD5 check sum: 2d9e7bc02555220d62fad08c3c4858e7
     Pseudo is Norm-conserving, Zval = 11.0
     Generated using ONCVPSP code by D. R. Hamann
     Using radial grid of  602 points,  4 beta functions with: 
                l(1) =   0
                l(2) =   0
                l(3) =   1
                l(4) =   1

     PseudoPot. # 2 for As read from file:
     ../../pseudo/As_ONCV_PBE-1.2.upf
     MD5 check sum: a2ff92a4799c87c945fff9e6739df4dd
     Pseudo is Norm-conserving, Zval =  5.0
     Generated using ONCVPSP code by D. R. Hamann
     Using radial grid of  602 points,  6 beta functions with: 
                l(1) =   0
                l(2) =   0
                l(3) =   1
                l(4) =   1
                l(5) =   2
                l(6) =   2

     atomic species   valence    mass     pseudopotential
        Al            11.00    26.98200     Al( 1.00)
        As             5.00    74.92200     As( 1.00)

     No symmetry found



   Cartesian axes

     site n.     atom                  positions (alat units)
         1           Al  tau(   1) = (  -0.1250000  -0.1250000  -0.1250000  )
         2           Al  tau(   2) = (   0.3750000   0.3750000  -0.1250000  )
         3           Al  tau(   3) = (   0.3750000  -0.1250000   0.3750000  )
         4           Al  tau(   4) = (  -0.1250000   0.3750000   0.3750000  )
         5           As  tau(   5) = (   0.1250000   0.1250000   0.1250000  )
         6           As  tau(   6) = (   0.6250000   0.6250000   0.1250000  )
         7           As  tau(   7) = (   0.6250000   0.1250000   0.6250000  )
         8           As  tau(   8) = (   0.1250000   0.6250000   0.6250000  )

     number of k points=    64
                       cart. coord. in units 2pi/alat
        k(    1) = (   0.0000000   0.0000000   0.0000000), wk =   0.0312500
        k(    2) = (   0.0000000   0.0000000   0.2500000), wk =   0.0312500
        k(    3) = (   0.0000000   0.0000000   0.5000000), wk =   0.0312500
        k(    4) = (   0.0000000   0.0000000   0.7500000), wk =   0.0312500
        k(    5) = (   0.0000000   0.2500000   0.0000000), wk =   0.0312500
        k(    6) = (   0.0000000   0.2500000   0.2500000), wk =   0.0312500
        k(    7) = (   0.0000000   0.2500000   0.5000000), wk =   0.0312500
        k(    8) = (   0.0000000   0.2500000   0.7500000), wk =   0.0312500
        k(    9) = (   0.0000000   0.5000000   0.0000000), wk =   0.0312500
        k(   10) = (   0.0000000   0.5000000   0.2500000), wk =   0.0312500
        k(   11) = (   0.0000000   0.5000000   0.5000000), wk =   0.0312500
        k(   12) = (   0.0000000   0.5000000   0.7500000), wk =   0.0312500
        k(   13) = (   0.0000000   0.7500000   0.0000000), wk =   0.0312500
        k(   14) = (   0.0000000   0.7500000   0.2500000), wk =   0.0312500
        k(   15) = (   0.0000000   0.7500000   0.5000000), wk =   0.0312500
        k(   16) = (   0.0000000   0.7500000   0.7500000), wk =   0.0312500
        k(   17) = (   0.2500000   0.0000000   0.0000000), wk =   0.0312500
        k(   18) = (   0.2500000   0.0000000   0.2500000), wk =   0.0312500
        k(   19) = (   0.2500000   0.0000000   0.5000000), wk =   0.0312500
        k(   20) = (   0.2500000   0.0000000   0.7500000), wk =   0.0312500
        k(   21) = (   0.2500000   0.2500000   0.0000000), wk =   0.0312500
        k(   22) = (   0.2500000   0.2500000   0.2500000), wk =   0.0312500
        k(   23) = (   0.2500000   0.2500000   0.5000000), wk =   0.0312500
        k(   24) = (   0.2500000   0.2500000   0.7500000), wk =   0.0312500
        k(   25) = (   0.2500000   0.5000000   0.0000000), wk =   0.0312500
        k(   26) = (   0.2500000   0.5000000   0.2500000), wk =   0.0312500
        k(   27) = (   0.2500000   0.5000000   0.5000000), wk =   0.0312500
        k(   28) = (   0.2500000   0.5000000   0.7500000), wk =   0.0312500
        k(   29) = (   0.2500000   0.7500000   0.0000000), wk =   0.0312500
        k(   30) = (   0.2500000   0.7500000   0.2500000), wk =   0.0312500
        k(   31) = (   0.2500000   0.7500000   0.5000000), wk =   0.0312500
        k(   32) = (   0.2500000   0.7500000   0.7500000), wk =   0.0312500
        k(   33) = (   0.5000000   0.0000000   0.0000000), wk =   0.0312500
        k(   34) = (   0.5000000   0.0000000   0.2500000), wk =   0.0312500
        k(   35) = (   0.5000000   0.0000000   0.5000000), wk =   0.0312500
        k(   36) = (   0.5000000   0.0000000   0.7500000), wk =   0.0312500
        k(   37) = (   0.5000000   0.2500000   0.0000000), wk =   0.0312500
        k(   38) = (   0.5000000   0.2500000   0.2500000), wk =   0.0312500
        k(   39) = (   0.5000000   0.2500000   0.5000000), wk =   0.0312500
        k(   40) = (   0.5000000   0.2500000   0.7500000), wk =   0.0312500
        k(   41) = (   0.5000000   0.5000000   0.0000000), wk =   0.0312500
        k(   42) = (   0.5000000   0.5000000   0.2500000), wk =   0.0312500
        k(   43) = (   0.5000000   0.5000000   0.5000000), wk =   0.0312500
        k(   44) = (   0.5000000   0.5000000   0.7500000), wk =   0.0312500
        k(   45) = (   0.5000000   0.7500000   0.0000000), wk =   0.0312500
        k(   46) = (   0.5000000   0.7500000   0.2500000), wk =   0.0312500
        k(   47) = (   0.5000000   0.7500000   0.5000000), wk =   0.0312500
        k(   48) = (   0.5000000   0.7500000   0.7500000), wk =   0.0312500
        k(   49) = (   0.7500000   0.0000000   0.0000000), wk =   0.0312500
        k(   50) = (   0.7500000   0.0000000   0.2500000), wk =   0.0312500
        k(   51) = (   0.7500000   0.0000000   0.5000000), wk =   0.0312500
        k(   52) = (   0.7500000   0.0000000   0.7500000), wk =   0.0312500
        k(   53) = (   0.7500000   0.2500000   0.0000000), wk =   0.0312500
        k(   54) = (   0.7500000   0.2500000   0.2500000), wk =   0.0312500
        k(   55) = (   0.7500000   0.2500000   0.5000000), wk =   0.0312500
        k(   56) = (   0.7500000   0.2500000   0.7500000), wk =   0.0312500
        k(   57) = (   0.7500000   0.5000000   0.0000000), wk =   0.0312500
        k(   58) = (   0.7500000   0.5000000   0.2500000), wk =   0.0312500
        k(   59) = (   0.7500000   0.5000000   0.5000000), wk =   0.0312500
        k(   60) = (   0.7500000   0.5000000   0.7500000), wk =   0.0312500
        k(   61) = (   0.7500000   0.7500000   0.0000000), wk =   0.0312500
        k(   62) = (   0.7500000   0.7500000   0.2500000), wk =   0.0312500
        k(   63) = (   0.7500000   0.7500000   0.5000000), wk =   0.0312500
        k(   64) = (   0.7500000   0.7500000   0.7500000), wk =   0.0312500

     Dense  grid:    40483 G-vectors     FFT dimensions: (  45,  45,  45)

     Estimated max dynamical RAM per process >      53.05 MB

     Estimated total dynamical RAM >     212.19 MB

     Initial potential from superposition of free atoms

     starting charge      63.5461, renormalised to      64.0000
     Starting wfcs are random

     total cpu time spent up to now is        0.8 secs

     Self-consistent Calculation

     iteration #  1     ecut=    40.00 Ry     beta= 0.50
     Davidson diagonalization with overlap
     ethr =  1.00E-02,  avg # of iterations =  8.2
     Davidson diagonalization with overlap
     ethr =  1.00E-02,  avg # of iterations =  1.7
     Davidson diagonalization with overlap
     ethr =  1.00E-02,  avg # of iterations =  1.0

     Threshold (ethr) on eigenvalues was too large:
     Diagonalizing with lowered threshold

     Davidson diagonalization with overlap
     ethr =  5.47E-04,  avg # of iterations =  1.3
     Davidson diagonalization with overlap
     ethr =  5.47E-04,  avg # of iterations =  1.0
     Davidson diagonalization with overlap
     ethr =  5.47E-04,  avg # of iterations =  1.0
 
     Expectation value of exp(iGx): (0.192622879365712,2.425935449589880E-002)
   1.00000000000000     
     Electronic Dipole per cell (Ry a.u.)  0.596680183196006     
     Ionic Dipole per cell (Ry a.u.)   194.510933368796     
 
     Expectation value of exp(iGx): (0.194083077227438,4.066759510903441E-007)
   1.00000000000000     
     Electronic Dipole per cell (Ry a.u.)  9.979565074641109E-006
     Ionic Dipole per cell (Ry a.u.)   194.510933368795     
 
     Expectation value of exp(iGx): (0.194206830799104,4.004476014039417E-004)
   1.00000000000000     
     Electronic Dipole per cell (Ry a.u.)  9.820449638467179E-003
     Ionic Dipole per cell (Ry a.u.)   194.510933368796     
Electronic Dipole on Cartesian axes
           1  0.596680183196006     
           2  9.979565074641109E-006
           3  9.820449638467179E-003
Ionic Dipole on Cartesian axes
           1   194.510933368796     
           2   194.510933368795     
           3   194.510933368796     

     total cpu time spent up to now is       46.8 secs

     total energy              =    -604.57230577 Ry
     estimated scf accuracy    <       0.34729068 Ry

     iteration #  2     ecut=    40.00 Ry     beta= 0.50
     Davidson diagonalization with overlap
     ethr =  5.43E-04,  avg # of iterations =  2.0
     Davidson diagonalization with overlap
     ethr =  5.43E-04,  avg # of iterations =  1.0
     Davidson diagonalization with overlap
     ethr =  5.43E-04,  avg # of iterations =  1.0
 
     Expectation value of exp(iGx): (0.171861613134004,2.463155469467176E-002)
   1.00000000000000     
     Electronic Dipole per cell (Ry a.u.)  0.677978981480049     
     Ionic Dipole per cell (Ry a.u.)   194.510933368796     
 
     Expectation value of exp(iGx): (0.173660551462784,-2.006768188472525E-005)
   1.00000000000000     
     Electronic Dipole per cell (Ry a.u.) -5.503599506339223E-004
     Ionic Dipole per cell (Ry a.u.)   194.510933368795     
 
     Expectation value of exp(iGx): (0.173678149101948,4.350014303916008E-005)
   1.00000000000000     
     Electronic Dipole per cell (Ry a.u.)  1.192878707427069E-003
     Ionic Dipole per cell (Ry a.u.)   194.510933368796     
Electronic Dipole on Cartesian axes
           1  0.677978981480049     
           2 -5.503599506339223E-004
           3  1.192878707427069E-003
Ionic Dipole on Cartesian axes
           1   194.510933368796     
           2   194.510933368795     
           3   194.510933368796     

     total cpu time spent up to now is       65.3 secs

     total energy              =    -604.61535046 Ry
     estimated scf accuracy    <       0.02921355 Ry

     iteration #  3     ecut=    40.00 Ry     beta= 0.50
     Davidson diagonalization with overlap
     ethr =  4.56E-05,  avg # of iterations =  1.0
     Davidson diagonalization with overlap
     ethr =  4.56E-05,  avg # of iterations =  1.0
     Davidson diagonalization with overlap
     ethr =  4.56E-05,  avg # of iterations =  1.0
 
     Expectation value of exp(iGx): (0.170103122884397,2.489848751214701E-002)
   1.00000000000000     
     Electronic Dipole per cell (Ry a.u.)  0.692210695213407     
     Ionic Dipole per cell (Ry a.u.)   194.510933368796     
 
     Expectation value of exp(iGx): (0.171976445229852,-1.062751379093453E-005)
   1.00000000000000     
     Electronic Dipole per cell (Ry a.u.) -2.943157487522404E-004
     Ionic Dipole per cell (Ry a.u.)   194.510933368795     
 
     Expectation value of exp(iGx): (0.171981307156716,9.566263160092374E-006)
   1.00000000000000     
     Electronic Dipole per cell (Ry a.u.)  2.649182458192418E-004
     Ionic Dipole per cell (Ry a.u.)   194.510933368796     
Electronic Dipole on Cartesian axes
           1  0.692210695213407     
           2 -2.943157487522404E-004
           3  2.649182458192418E-004
Ionic Dipole on Cartesian axes
           1   194.510933368796     
           2   194.510933368795     
           3   194.510933368796     

     total cpu time spent up to now is       82.7 secs

     total energy              =    -604.61561621 Ry
     estimated scf accuracy    <       0.00498444 Ry

     iteration #  4     ecut=    40.00 Ry     beta= 0.50
     Davidson diagonalization with overlap
     ethr =  7.79E-06,  avg # of iterations =  1.0
     Davidson diagonalization with overlap
     ethr =  7.79E-06,  avg # of iterations =  1.0
     Davidson diagonalization with overlap
     ethr =  7.79E-06,  avg # of iterations =  1.0
 
     Expectation value of exp(iGx): (0.170102449918224,2.502711360923262E-002)
   1.00000000000000     
     Electronic Dipole per cell (Ry a.u.)  0.695738853906582     
     Ionic Dipole per cell (Ry a.u.)   194.510933368796     
 
     Expectation value of exp(iGx): (0.172000122599134,-4.343163082215235E-006)
   1.00000000000000     
     Electronic Dipole per cell (Ry a.u.) -1.202619311335639E-004
     Ionic Dipole per cell (Ry a.u.)   194.510933368795     
 
     Expectation value of exp(iGx): (0.172001687865675,6.569034041685809E-006)
   1.00000000000000     
     Electronic Dipole per cell (Ry a.u.)  1.818945121531087E-004
     Ionic Dipole per cell (Ry a.u.)   194.510933368796     
Electronic Dipole on Cartesian axes
           1  0.695738853906582     
           2 -1.202619311335639E-004
           3  1.818945121531087E-004
Ionic Dipole on Cartesian axes
           1   194.510933368796     
           2   194.510933368795     
           3   194.510933368796     

     total cpu time spent up to now is      100.1 secs

     total energy              =    -604.61573904 Ry
     estimated scf accuracy    <       0.00003660 Ry

     iteration #  5     ecut=    40.00 Ry     beta= 0.50
     Davidson diagonalization with overlap
     ethr =  5.72E-08,  avg # of iterations =  2.3
     Davidson diagonalization with overlap
     ethr =  5.72E-08,  avg # of iterations =  1.0
     Davidson diagonalization with overlap
     ethr =  5.72E-08,  avg # of iterations =  1.0
 
     Expectation value of exp(iGx): (0.169967198020895,2.515026192608844E-002)
   1.00000000000000     
     Electronic Dipole per cell (Ry a.u.)  0.699661810047515     
     Ionic Dipole per cell (Ry a.u.)   194.510933368796     
 
     Expectation value of exp(iGx): (0.171887153555702,-1.803145545135930E-006)
   1.00000000000000     
     Electronic Dipole per cell (Ry a.u.) -4.996180917744572E-005
     Ionic Dipole per cell (Ry a.u.)   194.510933368795     
 
     Expectation value of exp(iGx): (0.171887128256377,-2.155817744909543E-006)
   1.00000000000000     
     Electronic Dipole per cell (Ry a.u.) -5.973370864849849E-005
     Ionic Dipole per cell (Ry a.u.)   194.510933368796     
Electronic Dipole on Cartesian axes
           1  0.699661810047515     
           2 -4.996180917744572E-005
           3 -5.973370864849849E-005
Ionic Dipole on Cartesian axes
           1   194.510933368796     
           2   194.510933368795     
           3   194.510933368796     

     total cpu time spent up to now is      118.7 secs

     total energy              =    -604.61574328 Ry
     estimated scf accuracy    <       0.00000342 Ry

     iteration #  6     ecut=    40.00 Ry     beta= 0.50
     Davidson diagonalization with overlap
     ethr =  5.34E-09,  avg # of iterations =  2.1
     Davidson diagonalization with overlap
     ethr =  5.34E-09,  avg # of iterations =  1.0
     Davidson diagonalization with overlap
     ethr =  5.34E-09,  avg # of iterations =  1.0
 
     Expectation value of exp(iGx): (0.170030856491324,2.516353259937100E-002)
   1.00000000000000     
     Electronic Dipole per cell (Ry a.u.)  0.699767368774953     
     Ionic Dipole per cell (Ry a.u.)   194.510933368796     
 
     Expectation value of exp(iGx): (0.171952629437973,-9.399558215045581E-007)
   1.00000000000000     
     Electronic Dipole per cell (Ry a.u.) -2.603451032163963E-005
     Ionic Dipole per cell (Ry a.u.)   194.510933368795     
 
     Expectation value of exp(iGx): (0.171952565890010,-1.167597869072660E-006)
   1.00000000000000     
     Electronic Dipole per cell (Ry a.u.) -3.233965821830366E-005
     Ionic Dipole per cell (Ry a.u.)   194.510933368796     
Electronic Dipole on Cartesian axes
           1  0.699767368774953     
           2 -2.603451032163963E-005
           3 -3.233965821830366E-005
Ionic Dipole on Cartesian axes
           1   194.510933368796     
           2   194.510933368795     
           3   194.510933368796     

     total cpu time spent up to now is      137.3 secs

     total energy              =    -604.61574368 Ry
     estimated scf accuracy    <       0.00000012 Ry

     iteration #  7     ecut=    40.00 Ry     beta= 0.50
     Davidson diagonalization with overlap
     ethr =  1.83E-10,  avg # of iterations =  4.0
     Davidson diagonalization with overlap
     ethr =  1.83E-10,  avg # of iterations =  1.0
     Davidson diagonalization with overlap
     ethr =  1.83E-10,  avg # of iterations =  1.0
 
     Expectation value of exp(iGx): (0.170071536646088,2.516000171517523E-002)
   1.00000000000000     
     Electronic Dipole per cell (Ry a.u.)  0.699505625322593     
     Ionic Dipole per cell (Ry a.u.)   194.510933368796     
 
     Expectation value of exp(iGx): (0.171992367485180,-5.565183042476919E-007)
   1.00000000000000     
     Electronic Dipole per cell (Ry a.u.) -1.541065405568386E-005
     Ionic Dipole per cell (Ry a.u.)   194.510933368795     
 
     Expectation value of exp(iGx): (0.171992363419804,-4.247792319952894E-007)
   1.00000000000000     
     Electronic Dipole per cell (Ry a.u.) -1.176264266438942E-005
     Ionic Dipole per cell (Ry a.u.)   194.510933368796     
Electronic Dipole on Cartesian axes
           1  0.699505625322593     
           2 -1.541065405568386E-005
           3 -1.176264266438942E-005
Ionic Dipole on Cartesian axes
           1   194.510933368796     
           2   194.510933368795     
           3   194.510933368796     

     total cpu time spent up to now is      157.3 secs

     total energy              =    -604.61574367 Ry
     estimated scf accuracy    <       0.00000022 Ry

     iteration #  8     ecut=    40.00 Ry     beta= 0.50
     Davidson diagonalization with overlap
     ethr =  1.83E-10,  avg # of iterations =  2.0
     Davidson diagonalization with overlap
     ethr =  1.83E-10,  avg # of iterations =  1.0
     Davidson diagonalization with overlap
     ethr =  1.83E-10,  avg # of iterations =  1.0
 
     Expectation value of exp(iGx): (0.170059346507965,2.516088099843764E-002)
   1.00000000000000     
     Electronic Dipole per cell (Ry a.u.)  0.699579146670507     
     Ionic Dipole per cell (Ry a.u.)   194.510933368796     
 
     Expectation value of exp(iGx): (0.171980432922177,-6.327429185098900E-007)
   1.00000000000000     
     Electronic Dipole per cell (Ry a.u.) -1.752262022151986E-005
     Ionic Dipole per cell (Ry a.u.)   194.510933368795     
 
     Expectation value of exp(iGx): (0.171980434235427,-5.653660088136489E-007)
   1.00000000000000     
     Electronic Dipole per cell (Ry a.u.) -1.565674382620322E-005
     Ionic Dipole per cell (Ry a.u.)   194.510933368796     
Electronic Dipole on Cartesian axes
           1  0.699579146670507     
           2 -1.752262022151986E-005
           3 -1.565674382620322E-005
Ionic Dipole on Cartesian axes
           1   194.510933368796     
           2   194.510933368795     
           3   194.510933368796     

     total cpu time spent up to now is      175.8 secs

     total energy              =    -604.61574370 Ry
     estimated scf accuracy    <       0.00000001 Ry

     iteration #  9     ecut=    40.00 Ry     beta= 0.50
     Davidson diagonalization with overlap
     ethr =  2.28E-11,  avg # of iterations =  2.0
     Davidson diagonalization with overlap
     ethr =  2.28E-11,  avg # of iterations =  1.0
     Davidson diagonalization with overlap
     ethr =  2.28E-11,  avg # of iterations =  1.0
 
     Expectation value of exp(iGx): (0.170054397772111,2.516272868519289E-002)
   1.00000000000000     
     Electronic Dipole per cell (Ry a.u.)  0.699649852543584     
     Ionic Dipole per cell (Ry a.u.)   194.510933368796     
 
     Expectation value of exp(iGx): (0.171975814606369,-7.022856709779698E-007)
   1.00000000000000     
     Electronic Dipole per cell (Ry a.u.) -1.944899770083425E-005
     Ionic Dipole per cell (Ry a.u.)   194.510933368795     
 
     Expectation value of exp(iGx): (0.171975814617888,-7.066552761916551E-007)
   1.00000000000000     
     Electronic Dipole per cell (Ry a.u.) -1.957000891372493E-005
     Ionic Dipole per cell (Ry a.u.)   194.510933368796     
Electronic Dipole on Cartesian axes
           1  0.699649852543584     
           2 -1.944899770083425E-005
           3 -1.957000891372493E-005
Ionic Dipole on Cartesian axes
           1   194.510933368796     
           2   194.510933368795     
           3   194.510933368796     

     total cpu time spent up to now is      194.3 secs

     End of self-consistent calculation

          k = 0.0000 0.0000 0.0000 (  5041 PWs)   bands (ev):

   -96.5248 -96.5246 -96.5246 -96.5023 -58.1377 -58.1368 -58.1367 -58.1348
   -58.1337 -58.1335 -58.1314 -58.1307 -58.1293 -58.1281 -58.1280 -58.1264
    -5.7207  -3.6361  -3.6361  -3.6361   0.7762   0.7762   0.7763   4.0780
     4.0798   4.0798   4.0801   4.0801   4.0803   6.3306   6.3333   6.3338

          k = 0.0000 0.0000 0.2500 (  5069 PWs)   bands (ev):

   -96.5390 -96.5258 -96.5205 -96.5203 -58.1381 -58.1371 -58.1369 -58.1365
   -58.1336 -58.1330 -58.1329 -58.1318 -58.1295 -58.1286 -58.1283 -58.1280
    -5.5081  -4.0993  -3.6185  -3.6185   0.9345   0.9345   1.5036   3.5334
     3.5337   3.6905   3.6907   4.3029   4.3032   4.9649   5.8107   5.8108

          k = 0.0000 0.0000 0.5000 (  5078 PWs)   bands (ev):

   -96.5441 -96.5439 -96.5144 -96.5143 -58.1383 -58.1382 -58.1362 -58.1361
   -58.1347 -58.1345 -58.1326 -58.1325 -58.1298 -58.1296 -58.1277 -58.1276
    -4.9077  -4.9077  -3.6005  -3.6005   1.1442   1.1442   3.0236   3.0237
     3.0912   3.0913   3.3900   3.3901   4.9355   4.9355   4.9359   4.9359

          k = 0.0000 0.0000 0.7500 (  5069 PWs)   bands (ev):

   -96.5390 -96.5258 -96.5205 -96.5203 -58.1381 -58.1371 -58.1369 -58.1365
   -58.1336 -58.1330 -58.1329 -58.1318 -58.1295 -58.1286 -58.1283 -58.1280
    -5.5081  -4.0993  -3.6185  -3.6185   0.9345   0.9345   1.5036   3.5334
     3.5337   3.6905   3.6907   4.3029   4.3032   4.9649   5.8107   5.8108

          k = 0.0000 0.2500 0.0000 (  5069 PWs)   bands (ev):

   -96.5390 -96.5258 -96.5205 -96.5203 -58.1381 -58.1371 -58.1369 -58.1365
   -58.1336 -58.1330 -58.1329 -58.1318 -58.1295 -58.1286 -58.1283 -58.1280
    -5.5081  -4.0993  -3.6185  -3.6185   0.9345   0.9345   1.5036   3.5334
     3.5337   3.6905   3.6907   4.3029   4.3032   4.9649   5.8107   5.8108

          k = 0.0000 0.2500 0.2500 (  5047 PWs)   bands (ev):

   -96.5344 -96.5186 -96.5145 -96.5144 -58.1371 -58.1368 -58.1358 -58.1357
   -58.1330 -58.1326 -58.1325 -58.1323 -58.1293 -58.1280 -58.1276 -58.1275
    -5.3053  -4.0126  -4.0126  -3.6680   1.0493   1.4243   1.4243   2.7803
     3.6796   3.6796   3.8600   4.2133   4.2133   4.4634   5.2306   6.1625

          k = 0.0000 0.2500 0.5000 (  5066 PWs)   bands (ev):

   -96.5347 -96.5346 -96.5161 -96.5160 -58.1374 -58.1373 -58.1365 -58.1360
   -58.1340 -58.1338 -58.1324 -58.1323 -58.1290 -58.1288 -58.1280 -58.1275
    -4.7431  -4.7427  -3.8221  -3.8215   1.2424   1.2453   2.5082   2.5116
     2.8496   2.8504   4.3015   4.3017   4.3697   4.3725   5.3195   5.3225

          k = 0.0000 0.2500 0.7500 (  5047 PWs)   bands (ev):

   -96.5344 -96.5186 -96.5145 -96.5144 -58.1378 -58.1365 -58.1362 -58.1362
   -58.1330 -58.1326 -58.1325 -58.1323 -58.1286 -58.1284 -58.1271 -58.1271
    -5.3051  -4.0131  -4.0131  -3.6675   1.0481   1.4267   1.4267   2.7781
     3.6797   3.6797   3.8565   4.2110   4.2110   4.4659   5.2308   6.1655

          k = 0.0000 0.5000 0.0000 (  5078 PWs)   bands (ev):

   -96.5441 -96.5439 -96.5144 -96.5143 -58.1383 -58.1382 -58.1362 -58.1361
   -58.1347 -58.1345 -58.1326 -58.1325 -58.1298 -58.1296 -58.1277 -58.1276
    -4.9077  -4.9077  -3.6005  -3.6005   1.1442   1.1442   3.0236   3.0237
     3.0912   3.0913   3.3900   3.3901   4.9355   4.9355   4.9359   4.9359

          k = 0.0000 0.5000 0.2500 (  5066 PWs)   bands (ev):

   -96.5347 -96.5346 -96.5161 -96.5160 -58.1375 -58.1373 -58.1365 -58.1360
   -58.1340 -58.1338 -58.1324 -58.1323 -58.1290 -58.1288 -58.1280 -58.1275
    -4.7431  -4.7427  -3.8221  -3.8215   1.2424   1.2453   2.5082   2.5116
     2.8496   2.8504   4.3015   4.3017   4.3697   4.3725   5.3195   5.3225

          k = 0.0000 0.5000 0.5000 (  5056 PWs)   bands (ev):

   -96.5220 -96.5218 -96.5218 -96.5217 -58.1368 -58.1367 -58.1357 -58.1356
   -58.1332 -58.1330 -58.1330 -58.1330 -58.1284 -58.1283 -58.1273 -58.1272
    -4.3112  -4.3111  -4.3104  -4.3104   1.6933   1.6934   1.6971   1.6971
     3.3528   3.3528   3.3529   3.3529   5.4009   5.4009   5.4037   5.4037

          k = 0.0000 0.5000 0.7500 (  5066 PWs)   bands (ev):

   -96.5347 -96.5346 -96.5161 -96.5160 -58.1375 -58.1373 -58.1365 -58.1360
   -58.1340 -58.1338 -58.1324 -58.1323 -58.1290 -58.1288 -58.1280 -58.1275
    -4.7431  -4.7427  -3.8221  -3.8215   1.2424   1.2453   2.5082   2.5116
     2.8496   2.8504   4.3015   4.3017   4.3697   4.3725   5.3195   5.3225

          k = 0.0000 0.7500 0.0000 (  5069 PWs)   bands (ev):

   -96.5390 -96.5258 -96.5205 -96.5203 -58.1381 -58.1371 -58.1369 -58.1365
   -58.1336 -58.1330 -58.1329 -58.1318 -58.1295 -58.1286 -58.1283 -58.1280
    -5.5081  -4.0993  -3.6185  -3.6185   0.9345   0.9345   1.5036   3.5334
     3.5337   3.6905   3.6907   4.3029   4.3032   4.9649   5.8107   5.8108

          k = 0.0000 0.7500 0.2500 (  5047 PWs)   bands (ev):

   -96.5344 -96.5186 -96.5145 -96.5144 -58.1378 -58.1365 -58.1362 -58.1362
   -58.1330 -58.1326 -58.1325 -58.1323 -58.1286 -58.1284 -58.1271 -58.1271
    -5.3051  -4.0131  -4.0131  -3.6675   1.0481   1.4267   1.4267   2.7781
     3.6797   3.6797   3.8565   4.2110   4.2110   4.4659   5.2308   6.1655

          k = 0.0000 0.7500 0.5000 (  5066 PWs)   bands (ev):

   -96.5347 -96.5346 -96.5161 -96.5160 -58.1374 -58.1373 -58.1365 -58.1360
   -58.1340 -58.1338 -58.1324 -58.1323 -58.1290 -58.1288 -58.1280 -58.1275
    -4.7431  -4.7427  -3.8221  -3.8215   1.2424   1.2453   2.5082   2.5116
     2.8496   2.8504   4.3015   4.3017   4.3697   4.3725   5.3195   5.3225

          k = 0.0000 0.7500 0.7500 (  5047 PWs)   bands (ev):

   -96.5344 -96.5186 -96.5145 -96.5144 -58.1371 -58.1368 -58.1358 -58.1357
   -58.1330 -58.1326 -58.1325 -58.1323 -58.1293 -58.1280 -58.1276 -58.1275
    -5.3053  -4.0126  -4.0126  -3.6680   1.0493   1.4243   1.4243   2.7803
     3.6796   3.6796   3.8600   4.2133   4.2133   4.4634   5.2306   6.1625

          k = 0.2500 0.0000 0.0000 (  5069 PWs)   bands (ev):

   -96.5390 -96.5258 -96.5205 -96.5203 -58.1378 -58.1370 -58.1366 -58.1365
   -58.1348 -58.1330 -58.1328 -58.1318 -58.1293 -58.1286 -58.1281 -58.1280
    -5.5081  -4.0993  -3.6185  -3.6185   0.9345   0.9345   1.5037   3.5336
     3.5336   3.6908   3.6908   4.3012   4.3035   4.9652   5.8089   5.8116

          k = 0.2500 0.0000 0.2500 (  5047 PWs)   bands (ev):

   -96.5344 -96.5186 -96.5146 -96.5144 -58.1373 -58.1368 -58.1365 -58.1359
   -58.1333 -58.1327 -58.1324 -58.1309 -58.1288 -58.1283 -58.1281 -58.1273
    -5.3052  -4.0129  -4.0128  -3.6678   1.0487   1.4255   1.4256   2.7792
     3.6794   3.6797   3.8582   4.2119   4.2121   4.4654   5.2306   6.1646

          k = 0.2500 0.0000 0.5000 (  5066 PWs)   bands (ev):

   -96.5347 -96.5346 -96.5161 -96.5160 -58.1379 -58.1378 -58.1362 -58.1361
   -58.1330 -58.1329 -58.1325 -58.1324 -58.1295 -58.1293 -58.1278 -58.1276
    -4.7429  -4.7429  -3.8218  -3.8218   1.2438   1.2438   2.5099   2.5099
     2.8499   2.8500   4.3017   4.3017   4.3713   4.3713   5.3211   5.3211

          k = 0.2500 0.0000 0.7500 (  5047 PWs)   bands (ev):

   -96.5344 -96.5186 -96.5146 -96.5144 -58.1373 -58.1368 -58.1365 -58.1359
   -58.1333 -58.1327 -58.1324 -58.1309 -58.1288 -58.1283 -58.1281 -58.1273
    -5.3052  -4.0129  -4.0128  -3.6678   1.0487   1.4255   1.4256   2.7792
     3.6794   3.6797   3.8581   4.2119   4.2121   4.4654   5.2306   6.1646

          k = 0.2500 0.2500 0.0000 (  5047 PWs)   bands (ev):

   -96.5344 -96.5186 -96.5146 -96.5144 -58.1373 -58.1368 -58.1365 -58.1359
   -58.1333 -58.1327 -58.1324 -58.1309 -58.1288 -58.1283 -58.1281 -58.1273
    -5.3052  -4.0128  -4.0128  -3.6678   1.0487   1.4255   1.4256   2.7792
     3.6794   3.6797   3.8582   4.2119   4.2121   4.4654   5.2306   6.1646

          k = 0.2500 0.2500 0.2500 (  5070 PWs)   bands (ev):

   -96.5368 -96.5229 -96.5227 -96.5227 -58.1377 -58.1375 -58.1363 -58.1363
   -58.1334 -58.1329 -58.1328 -58.1322 -58.1290 -58.1288 -58.1287 -58.1281
    -5.1167  -3.9787  -3.9783  -3.9783   1.1706   1.1707   1.1726   2.8805
     3.5061   3.5062   3.5062   4.6559   4.6578   4.6578   5.8340   5.8371

          k = 0.2500 0.2500 0.5000 (  5088 PWs)   bands (ev):

   -96.5396 -96.5395 -96.5227 -96.5225 -58.1384 -58.1377 -58.1372 -58.1367
   -58.1339 -58.1338 -58.1330 -58.1326 -58.1299 -58.1292 -58.1286 -58.1278
    -4.6051  -4.6047  -3.9429  -3.9422   0.9377   0.9401   1.7785   1.7811
     3.5531   3.5534   4.7286   4.7306   4.9717   4.9740   5.1840   5.1843

          k = 0.2500 0.2500 0.7500 (  5070 PWs)   bands (ev):

   -96.5368 -96.5229 -96.5227 -96.5227 -58.1375 -58.1373 -58.1372 -58.1368
   -58.1334 -58.1332 -58.1330 -58.1319 -58.1292 -58.1291 -58.1276 -58.1275
    -5.1165  -3.9788  -3.9787  -3.9783   1.1712   1.1731   1.1732   2.8784
     3.5039   3.5040   3.5041   4.6579   4.6579   4.6584   5.8358   5.8369

          k = 0.2500 0.5000 0.0000 (  5066 PWs)   bands (ev):

   -96.5347 -96.5346 -96.5161 -96.5160 -58.1379 -58.1378 -58.1362 -58.1361
   -58.1330 -58.1329 -58.1325 -58.1324 -58.1295 -58.1293 -58.1278 -58.1276
    -4.7429  -4.7429  -3.8218  -3.8218   1.2438   1.2438   2.5099   2.5099
     2.8499   2.8500   4.3017   4.3017   4.3713   4.3713   5.3211   5.3211

          k = 0.2500 0.5000 0.2500 (  5088 PWs)   bands (ev):

   -96.5396 -96.5395 -96.5227 -96.5225 -58.1384 -58.1377 -58.1372 -58.1367
   -58.1339 -58.1338 -58.1330 -58.1326 -58.1299 -58.1292 -58.1286 -58.1278
    -4.6051  -4.6047  -3.9429  -3.9422   0.9377   0.9401   1.7785   1.7811
     3.5531   3.5534   4.7286   4.7306   4.9717   4.9740   5.1840   5.1843

          k = 0.2500 0.5000 0.5000 (  5048 PWs)   bands (ev):

   -96.5200 -96.5198 -96.5198 -96.5198 -58.1372 -58.1371 -58.1357 -58.1356
   -58.1327 -58.1325 -58.1324 -58.1323 -58.1288 -58.1287 -58.1270 -58.1270
    -4.2671  -4.2671  -4.2664  -4.2664   1.0233   1.0234   1.0262   1.0262
     4.4350   4.4350   4.4361   4.4361   5.4390   5.4390   5.4419   5.4419

          k = 0.2500 0.5000 0.7500 (  5088 PWs)   bands (ev):

   -96.5396 -96.5395 -96.5227 -96.5225 -58.1384 -58.1377 -58.1372 -58.1367
   -58.1339 -58.1338 -58.1330 -58.1326 -58.1299 -58.1292 -58.1286 -58.1278
    -4.6051  -4.6047  -3.9429  -3.9422   0.9377   0.9401   1.7785   1.7811
     3.5531   3.5534   4.7286   4.7306   4.9717   4.9740   5.1840   5.1843

          k = 0.2500 0.7500 0.0000 (  5047 PWs)   bands (ev):

   -96.5344 -96.5186 -96.5146 -96.5144 -58.1373 -58.1368 -58.1365 -58.1359
   -58.1333 -58.1327 -58.1324 -58.1309 -58.1288 -58.1283 -58.1281 -58.1273
    -5.3052  -4.0129  -4.0128  -3.6678   1.0487   1.4255   1.4256   2.7792
     3.6794   3.6797   3.8581   4.2119   4.2121   4.4654   5.2306   6.1646

          k = 0.2500 0.7500 0.2500 (  5070 PWs)   bands (ev):

   -96.5368 -96.5229 -96.5227 -96.5227 -58.1375 -58.1373 -58.1372 -58.1368
   -58.1334 -58.1332 -58.1330 -58.1319 -58.1292 -58.1291 -58.1276 -58.1275
    -5.1165  -3.9788  -3.9787  -3.9783   1.1712   1.1731   1.1732   2.8784
     3.5039   3.5040   3.5041   4.6579   4.6579   4.6584   5.8358   5.8369

          k = 0.2500 0.7500 0.5000 (  5088 PWs)   bands (ev):

   -96.5396 -96.5395 -96.5227 -96.5225 -58.1384 -58.1377 -58.1372 -58.1367
   -58.1339 -58.1338 -58.1330 -58.1326 -58.1299 -58.1292 -58.1286 -58.1278
    -4.6051  -4.6047  -3.9429  -3.9422   0.9377   0.9401   1.7785   1.7811
     3.5531   3.5534   4.7286   4.7306   4.9717   4.9740   5.1840   5.1843

          k = 0.2500 0.7500 0.7500 (  5070 PWs)   bands (ev):

   -96.5368 -96.5229 -96.5227 -96.5227 -58.1377 -58.1375 -58.1363 -58.1363
   -58.1334 -58.1329 -58.1328 -58.1322 -58.1290 -58.1288 -58.1287 -58.1281
    -5.1167  -3.9787  -3.9783  -3.9783   1.1706   1.1707   1.1726   2.8805
     3.5061   3.5062   3.5062   4.6559   4.6578   4.6578   5.8340   5.8371

          k = 0.5000 0.0000 0.0000 (  5078 PWs)   bands (ev):

   -96.5441 -96.5440 -96.5144 -96.5143 -58.1388 -58.1387 -58.1367 -58.1367
   -58.1336 -58.1334 -58.1315 -58.1313 -58.1304 -58.1302 -58.1283 -58.1282
    -4.9077  -4.9077  -3.6005  -3.6005   1.1442   1.1442   3.0236   3.0237
     3.0913   3.0913   3.3901   3.3901   4.9339   4.9339   4.9363   4.9364

          k = 0.5000 0.0000 0.2500 (  5066 PWs)   bands (ev):

   -96.5347 -96.5346 -96.5161 -96.5160 -58.1376 -58.1375 -58.1366 -58.1365
   -58.1336 -58.1334 -58.1318 -58.1316 -58.1291 -58.1290 -58.1281 -58.1281
    -4.7429  -4.7429  -3.8218  -3.8218   1.2438   1.2438   2.5099   2.5099
     2.8500   2.8500   4.3015   4.3015   4.3713   4.3713   5.3209   5.3209

          k = 0.5000 0.0000 0.5000 (  5056 PWs)   bands (ev):

   -96.5220 -96.5218 -96.5218 -96.5217 -58.1369 -58.1367 -58.1367 -58.1367
   -58.1323 -58.1321 -58.1320 -58.1320 -58.1284 -58.1281 -58.1281 -58.1281
    -4.3108  -4.3108  -4.3108  -4.3108   1.6952   1.6952   1.6952   1.6953
     3.3528   3.3528   3.3528   3.3528   5.4029   5.4029   5.4029   5.4029

          k = 0.5000 0.0000 0.7500 (  5066 PWs)   bands (ev):

   -96.5347 -96.5346 -96.5161 -96.5160 -58.1376 -58.1375 -58.1366 -58.1365
   -58.1336 -58.1334 -58.1318 -58.1316 -58.1291 -58.1290 -58.1281 -58.1281
    -4.7429  -4.7429  -3.8218  -3.8218   1.2438   1.2438   2.5099   2.5099
     2.8500   2.8500   4.3015   4.3015   4.3713   4.3713   5.3209   5.3209

          k = 0.5000 0.2500 0.0000 (  5066 PWs)   bands (ev):

   -96.5347 -96.5346 -96.5161 -96.5160 -58.1376 -58.1375 -58.1366 -58.1365
   -58.1336 -58.1334 -58.1318 -58.1316 -58.1291 -58.1290 -58.1281 -58.1281
    -4.7429  -4.7429  -3.8218  -3.8218   1.2438   1.2438   2.5099   2.5099
     2.8500   2.8500   4.3015   4.3015   4.3713   4.3713   5.3209   5.3209

          k = 0.5000 0.2500 0.2500 (  5088 PWs)   bands (ev):

   -96.5396 -96.5395 -96.5227 -96.5226 -58.1380 -58.1379 -58.1361 -58.1360
   -58.1340 -58.1338 -58.1324 -58.1323 -58.1298 -58.1296 -58.1295 -58.1295
    -4.6051  -4.6050  -3.9423  -3.9423   0.9376   0.9377   1.7806   1.7806
     3.5549   3.5549   4.7290   4.7291   4.9740   4.9740   5.1822   5.1822

          k = 0.5000 0.2500 0.5000 (  5048 PWs)   bands (ev):

   -96.5200 -96.5198 -96.5198 -96.5198 -58.1370 -58.1369 -58.1363 -58.1362
   -58.1325 -58.1323 -58.1321 -58.1320 -58.1285 -58.1284 -58.1275 -58.1274
    -4.2670  -4.2670  -4.2665  -4.2665   1.0236   1.0236   1.0259   1.0259
     4.4344   4.4344   4.4362   4.4362   5.4410   5.4410   5.4413   5.4414

          k = 0.5000 0.2500 0.7500 (  5088 PWs)   bands (ev):

   -96.5396 -96.5395 -96.5227 -96.5225 -58.1383 -58.1381 -58.1380 -58.1380
   -58.1339 -58.1337 -58.1326 -58.1324 -58.1295 -58.1294 -58.1275 -58.1274
    -4.6048  -4.6047  -3.9428  -3.9428   0.9401   0.9401   1.7790   1.7790
     3.5516   3.5516   4.7305   4.7306   4.9722   4.9722   5.1848   5.1848

          k = 0.5000 0.5000 0.0000 (  5056 PWs)   bands (ev):

   -96.5220 -96.5218 -96.5218 -96.5217 -58.1369 -58.1367 -58.1367 -58.1367
   -58.1323 -58.1321 -58.1320 -58.1320 -58.1284 -58.1281 -58.1281 -58.1281
    -4.3108  -4.3108  -4.3108  -4.3108   1.6952   1.6952   1.6952   1.6953
     3.3528   3.3528   3.3528   3.3528   5.4029   5.4029   5.4029   5.4029

          k = 0.5000 0.5000 0.2500 (  5048 PWs)   bands (ev):

   -96.5200 -96.5198 -96.5198 -96.5198 -58.1370 -58.1369 -58.1363 -58.1362
   -58.1325 -58.1323 -58.1321 -58.1320 -58.1285 -58.1284 -58.1275 -58.1274
    -4.2670  -4.2670  -4.2665  -4.2665   1.0236   1.0236   1.0259   1.0259
     4.4344   4.4344   4.4362   4.4362   5.4410   5.4410   5.4413   5.4414

          k = 0.5000 0.5000 0.5000 (  5040 PWs)   bands (ev):

   -96.5175 -96.5172 -96.5172 -96.5172 -58.1372 -58.1371 -58.1358 -58.1357
   -58.1324 -58.1323 -58.1317 -58.1316 -58.1287 -58.1286 -58.1266 -58.1265
    -4.2208  -4.2208  -4.2200  -4.2200   0.6045   0.6045   0.6071   0.6072
     5.4794   5.4795   5.4813   5.4813   5.4824   5.4824   5.4829   5.4829

          k = 0.5000 0.5000 0.7500 (  5048 PWs)   bands (ev):

   -96.5200 -96.5198 -96.5198 -96.5198 -58.1370 -58.1369 -58.1363 -58.1362
   -58.1325 -58.1323 -58.1321 -58.1320 -58.1285 -58.1284 -58.1275 -58.1274
    -4.2670  -4.2670  -4.2665  -4.2665   1.0236   1.0236   1.0259   1.0259
     4.4344   4.4344   4.4362   4.4362   5.4410   5.4410   5.4413   5.4414

          k = 0.5000 0.7500 0.0000 (  5066 PWs)   bands (ev):

   -96.5347 -96.5346 -96.5161 -96.5160 -58.1376 -58.1375 -58.1366 -58.1365
   -58.1336 -58.1334 -58.1318 -58.1316 -58.1291 -58.1290 -58.1281 -58.1281
    -4.7429  -4.7429  -3.8218  -3.8218   1.2438   1.2438   2.5099   2.5099
     2.8500   2.8500   4.3015   4.3015   4.3713   4.3713   5.3209   5.3209

          k = 0.5000 0.7500 0.2500 (  5088 PWs)   bands (ev):

   -96.5396 -96.5395 -96.5227 -96.5225 -58.1383 -58.1381 -58.1380 -58.1380
   -58.1339 -58.1337 -58.1326 -58.1324 -58.1295 -58.1294 -58.1275 -58.1274
    -4.6048  -4.6047  -3.9428  -3.9428   0.9401   0.9401   1.7790   1.7790
     3.5516   3.5516   4.7305   4.7306   4.9722   4.9722   5.1848   5.1848

          k = 0.5000 0.7500 0.5000 (  5048 PWs)   bands (ev):

   -96.5200 -96.5198 -96.5198 -96.5198 -58.1370 -58.1369 -58.1363 -58.1362
   -58.1325 -58.1323 -58.1321 -58.1320 -58.1285 -58.1284 -58.1275 -58.1274
    -4.2670  -4.2670  -4.2665  -4.2665   1.0236   1.0236   1.0259   1.0259
     4.4344   4.4344   4.4362   4.4362   5.4410   5.4410   5.4413   5.4414

          k = 0.5000 0.7500 0.7500 (  5088 PWs)   bands (ev):

   -96.5396 -96.5395 -96.5227 -96.5226 -58.1380 -58.1379 -58.1361 -58.1360
   -58.1340 -58.1338 -58.1324 -58.1323 -58.1298 -58.1296 -58.1295 -58.1295
    -4.6051  -4.6050  -3.9423  -3.9423   0.9376   0.9377   1.7806   1.7806
     3.5549   3.5549   4.7290   4.7291   4.9740   4.9740   5.1822   5.1822

          k = 0.7500 0.0000 0.0000 (  5069 PWs)   bands (ev):

   -96.5390 -96.5258 -96.5205 -96.5203 -58.1378 -58.1370 -58.1366 -58.1365
   -58.1348 -58.1330 -58.1328 -58.1318 -58.1293 -58.1286 -58.1281 -58.1280
    -5.5081  -4.0993  -3.6185  -3.6185   0.9345   0.9345   1.5037   3.5336
     3.5336   3.6908   3.6908   4.3012   4.3035   4.9652   5.8089   5.8116

          k = 0.7500 0.0000 0.2500 (  5047 PWs)   bands (ev):

   -96.5344 -96.5186 -96.5146 -96.5144 -58.1373 -58.1368 -58.1365 -58.1359
   -58.1333 -58.1327 -58.1324 -58.1309 -58.1288 -58.1283 -58.1281 -58.1273
    -5.3052  -4.0129  -4.0128  -3.6678   1.0487   1.4255   1.4256   2.7792
     3.6794   3.6797   3.8581   4.2119   4.2121   4.4654   5.2306   6.1646

          k = 0.7500 0.0000 0.5000 (  5066 PWs)   bands (ev):

   -96.5347 -96.5346 -96.5161 -96.5160 -58.1379 -58.1378 -58.1362 -58.1361
   -58.1330 -58.1329 -58.1325 -58.1324 -58.1295 -58.1293 -58.1278 -58.1276
    -4.7429  -4.7429  -3.8218  -3.8218   1.2438   1.2438   2.5099   2.5099
     2.8499   2.8500   4.3017   4.3017   4.3713   4.3713   5.3211   5.3211

          k = 0.7500 0.0000 0.7500 (  5047 PWs)   bands (ev):

   -96.5344 -96.5186 -96.5146 -96.5144 -58.1373 -58.1368 -58.1365 -58.1359
   -58.1333 -58.1327 -58.1324 -58.1309 -58.1288 -58.1283 -58.1281 -58.1273
    -5.3052  -4.0129  -4.0128  -3.6678   1.0487   1.4255   1.4256   2.7792
     3.6794   3.6797   3.8582   4.2119   4.2121   4.4654   5.2306   6.1646

          k = 0.7500 0.2500 0.0000 (  5047 PWs)   bands (ev):

   -96.5344 -96.5186 -96.5146 -96.5144 -58.1373 -58.1368 -58.1365 -58.1359
   -58.1333 -58.1327 -58.1324 -58.1309 -58.1288 -58.1283 -58.1281 -58.1273
    -5.3052  -4.0129  -4.0128  -3.6678   1.0487   1.4255   1.4256   2.7792
     3.6794   3.6797   3.8581   4.2119   4.2121   4.4654   5.2306   6.1646

          k = 0.7500 0.2500 0.2500 (  5070 PWs)   bands (ev):

   -96.5368 -96.5229 -96.5227 -96.5227 -58.1377 -58.1375 -58.1363 -58.1363
   -58.1334 -58.1329 -58.1328 -58.1322 -58.1290 -58.1288 -58.1287 -58.1281
    -5.1167  -3.9787  -3.9783  -3.9783   1.1706   1.1707   1.1726   2.8805
     3.5061   3.5062   3.5062   4.6559   4.6578   4.6578   5.8340   5.8371

          k = 0.7500 0.2500 0.5000 (  5088 PWs)   bands (ev):

   -96.5396 -96.5395 -96.5227 -96.5225 -58.1384 -58.1377 -58.1372 -58.1367
   -58.1339 -58.1338 -58.1330 -58.1326 -58.1299 -58.1292 -58.1286 -58.1278
    -4.6051  -4.6047  -3.9429  -3.9422   0.9377   0.9401   1.7785   1.7811
     3.5531   3.5534   4.7286   4.7306   4.9717   4.9740   5.1840   5.1843

          k = 0.7500 0.2500 0.7500 (  5070 PWs)   bands (ev):

   -96.5368 -96.5229 -96.5227 -96.5227 -58.1375 -58.1373 -58.1372 -58.1368
   -58.1334 -58.1332 -58.1330 -58.1319 -58.1292 -58.1291 -58.1276 -58.1275
    -5.1165  -3.9788  -3.9787  -3.9783   1.1712   1.1731   1.1732   2.8784
     3.5039   3.5040   3.5041   4.6579   4.6579   4.6584   5.8358   5.8369

          k = 0.7500 0.5000 0.0000 (  5066 PWs)   bands (ev):

   -96.5347 -96.5346 -96.5161 -96.5160 -58.1379 -58.1378 -58.1362 -58.1361
   -58.1330 -58.1329 -58.1325 -58.1324 -58.1295 -58.1293 -58.1278 -58.1276
    -4.7429  -4.7429  -3.8218  -3.8218   1.2438   1.2438   2.5099   2.5099
     2.8499   2.8500   4.3017   4.3017   4.3713   4.3713   5.3211   5.3211

          k = 0.7500 0.5000 0.2500 (  5088 PWs)   bands (ev):

   -96.5396 -96.5395 -96.5227 -96.5225 -58.1384 -58.1377 -58.1372 -58.1367
   -58.1339 -58.1338 -58.1330 -58.1326 -58.1299 -58.1292 -58.1286 -58.1278
    -4.6051  -4.6047  -3.9429  -3.9422   0.9377   0.9401   1.7785   1.7811
     3.5531   3.5534   4.7286   4.7306   4.9717   4.9740   5.1840   5.1843

          k = 0.7500 0.5000 0.5000 (  5048 PWs)   bands (ev):

   -96.5200 -96.5198 -96.5198 -96.5198 -58.1372 -58.1371 -58.1357 -58.1356
   -58.1327 -58.1325 -58.1324 -58.1323 -58.1288 -58.1287 -58.1270 -58.1270
    -4.2671  -4.2671  -4.2664  -4.2664   1.0233   1.0234   1.0262   1.0262
     4.4350   4.4350   4.4361   4.4361   5.4390   5.4390   5.4419   5.4419

          k = 0.7500 0.5000 0.7500 (  5088 PWs)   bands (ev):

   -96.5396 -96.5395 -96.5227 -96.5225 -58.1384 -58.1377 -58.1372 -58.1367
   -58.1339 -58.1338 -58.1330 -58.1326 -58.1299 -58.1292 -58.1286 -58.1278
    -4.6051  -4.6047  -3.9429  -3.9422   0.9377   0.9401   1.7785   1.7811
     3.5531   3.5534   4.7286   4.7306   4.9717   4.9740   5.1840   5.1843

          k = 0.7500 0.7500 0.0000 (  5047 PWs)   bands (ev):

   -96.5344 -96.5186 -96.5146 -96.5144 -58.1373 -58.1368 -58.1365 -58.1359
   -58.1333 -58.1327 -58.1324 -58.1309 -58.1288 -58.1283 -58.1281 -58.1273
    -5.3052  -4.0128  -4.0128  -3.6678   1.0487   1.4255   1.4256   2.7792
     3.6794   3.6797   3.8582   4.2119   4.2121   4.4654   5.2306   6.1646

          k = 0.7500 0.7500 0.2500 (  5070 PWs)   bands (ev):

   -96.5368 -96.5229 -96.5227 -96.5227 -58.1375 -58.1373 -58.1372 -58.1368
   -58.1334 -58.1332 -58.1330 -58.1319 -58.1292 -58.1291 -58.1276 -58.1275
    -5.1165  -3.9788  -3.9787  -3.9783   1.1712   1.1731   1.1732   2.8784
     3.5039   3.5040   3.5041   4.6579   4.6579   4.6584   5.8358   5.8369

          k = 0.7500 0.7500 0.5000 (  5088 PWs)   bands (ev):

   -96.5396 -96.5395 -96.5227 -96.5225 -58.1384 -58.1377 -58.1372 -58.1367
   -58.1339 -58.1338 -58.1330 -58.1326 -58.1299 -58.1292 -58.1286 -58.1278
    -4.6051  -4.6047  -3.9429  -3.9422   0.9377   0.9401   1.7785   1.7811
     3.5531   3.5534   4.7286   4.7306   4.9717   4.9740   5.1840   5.1843

          k = 0.7500 0.7500 0.7500 (  5070 PWs)   bands (ev):

   -96.5368 -96.5229 -96.5227 -96.5227 -58.1377 -58.1375 -58.1363 -58.1363
   -58.1334 -58.1329 -58.1328 -58.1322 -58.1290 -58.1288 -58.1287 -58.1281
    -5.1167  -3.9787  -3.9783  -3.9783   1.1706   1.1707   1.1726   2.8805
     3.5061   3.5062   3.5062   4.6559   4.6578   4.6578   5.8340   5.8371

     highest occupied level (ev):     6.3338

!    total energy              =    -604.61574370 Ry
     estimated scf accuracy    <          3.5E-11 Ry

     The total energy is the sum of the following terms:
     one-electron contribution =    -427.61132479 Ry
     hartree contribution      =     185.09663504 Ry
     xc contribution           =     -75.47755620 Ry
     ewald contribution        =    -286.42828716 Ry

     convergence has been achieved in   9 iterations

     Forces acting on atoms (cartesian axes, Ry/au):

     atom    1 type  1   force =     0.00295427   -0.00002455   -0.00002450
     atom    2 type  1   force =     0.00301480    0.00003491   -0.00003930
     atom    3 type  1   force =     0.00301484   -0.00003935    0.00003485
     atom    4 type  1   force =     0.00293864    0.00003471    0.00003467
     atom    5 type  2   force =    -0.00298099   -0.00000189   -0.00000180
     atom    6 type  2   force =    -0.00298000   -0.00000062   -0.00000241
     atom    7 type  2   force =    -0.00298002   -0.00000252   -0.00000069
     atom    8 type  2   force =    -0.00298153   -0.00000069   -0.00000082
     The non-local contrib.  to forces
     atom    1 type  1   force =    -0.01787858   -0.00005426   -0.00005550
     atom    2 type  1   force =    -0.01773787    0.00007949   -0.00008452
     atom    3 type  1   force =    -0.01773765   -0.00008324    0.00008074
     atom    4 type  1   force =    -0.01790950    0.00007924    0.00008047
     atom    5 type  2   force =    -0.01125569    0.00000277    0.00000252
     atom    6 type  2   force =    -0.01125792   -0.00000054    0.00000106
     atom    7 type  2   force =    -0.01125793    0.00000125   -0.00000025
     atom    8 type  2   force =    -0.01125670   -0.00000063   -0.00000057
     The ionic contribution  to forces
     atom    1 type  1   force =     0.00000000    0.00000000    0.00000000
     atom    2 type  1   force =     0.00000000   -0.00000000    0.00000000
     atom    3 type  1   force =     0.00000000   -0.00000000    0.00000000
     atom    4 type  1   force =     0.00000000   -0.00000000    0.00000000
     atom    5 type  2   force =    -0.00000000    0.00000000   -0.00000000
     atom    6 type  2   force =    -0.00000000    0.00000000   -0.00000000
     atom    7 type  2   force =    -0.00000000    0.00000000   -0.00000000
     atom    8 type  2   force =     0.00000000    0.00000000   -0.00000000
     The local contribution  to forces
     atom    1 type  1   force =     0.00527201    0.00003344    0.00002976
     atom    2 type  1   force =     0.00520613   -0.00004476    0.00004404
     atom    3 type  1   force =     0.00520670    0.00004768   -0.00004122
     atom    4 type  1   force =     0.00528659   -0.00004435   -0.00004066
     atom    5 type  2   force =     0.00120626   -0.00000341   -0.00000254
     atom    6 type  2   force =     0.00120744    0.00000252   -0.00000151
     atom    7 type  2   force =     0.00120746   -0.00000249    0.00000150
     atom    8 type  2   force =     0.00120664    0.00000249    0.00000182
     The core correction contribution to forces
     atom    1 type  1   force =     0.00000000    0.00000000    0.00000000
     atom    2 type  1   force =     0.00000000    0.00000000    0.00000000
     atom    3 type  1   force =     0.00000000    0.00000000    0.00000000
     atom    4 type  1   force =     0.00000000    0.00000000    0.00000000
     atom    5 type  2   force =     0.00000000    0.00000000    0.00000000
     atom    6 type  2   force =     0.00000000    0.00000000    0.00000000
     atom    7 type  2   force =     0.00000000    0.00000000    0.00000000
     atom    8 type  2   force =     0.00000000    0.00000000    0.00000000
     The Hubbard contrib.    to forces
     atom    1 type  1   force =     0.00000000    0.00000000    0.00000000
     atom    2 type  1   force =     0.00000000    0.00000000    0.00000000
     atom    3 type  1   force =     0.00000000    0.00000000    0.00000000
     atom    4 type  1   force =     0.00000000    0.00000000    0.00000000
     atom    5 type  2   force =     0.00000000    0.00000000    0.00000000
     atom    6 type  2   force =     0.00000000    0.00000000    0.00000000
     atom    7 type  2   force =     0.00000000    0.00000000    0.00000000
     atom    8 type  2   force =     0.00000000    0.00000000    0.00000000
     The SCF correction term to forces
     atom    1 type  1   force =     0.00000656   -0.00000183    0.00000313
     atom    2 type  1   force =    -0.00000775    0.00000208    0.00000309
     atom    3 type  1   force =    -0.00000850   -0.00000189   -0.00000278
     atom    4 type  1   force =     0.00000727    0.00000172   -0.00000325
     atom    5 type  2   force =    -0.00000056    0.00000065    0.00000013
     atom    6 type  2   force =     0.00000147   -0.00000071   -0.00000006
     atom    7 type  2   force =     0.00000145    0.00000062   -0.00000004
     atom    8 type  2   force =    -0.00000047   -0.00000064   -0.00000018

     Total force =     0.008431     Total SCF correction =     0.000017

     BFGS Geometry Optimization
     Energy error            =      0.0E+00 Ry
     Gradient error          =      3.0E-03 Ry/Bohr

     number of scf cycles    =   1
     number of bfgs steps    =   0

     energy             new  =    -604.6157437020 Ry

     new trust radius        =       0.0030152940 bohr
     new conv_thr            =       0.0000000100 Ry


ATOMIC_POSITIONS (alat)
Al           -0.1247207688       -0.1250023204       -0.1250023155
Al            0.3752849528        0.3750032992       -0.1250037143
Al            0.3752849561       -0.1250037192        0.3750032937
Al           -0.1247222460        0.3750032810        0.3750032766
As            0.1247182428        0.1249998212        0.1249998299
As            0.6247183363        0.6249999414        0.1249997724
As            0.6247183349        0.1249997620        0.6249999349
As            0.1247181918        0.6249999348        0.6249999222



     Writing config-only to output data dir ../tmp/alas.save/
     NEW-OLD atomic charge density approx. for the potential

     total cpu time spent up to now is      194.6 secs

     Self-consistent Calculation

     iteration #  1     ecut=    40.00 Ry     beta= 0.50
     Davidson diagonalization with overlap
     ethr =  1.00E-06,  avg # of iterations =  3.0
     Davidson diagonalization with overlap
     ethr =  1.00E-06,  avg # of iterations =  1.0
     Davidson diagonalization with overlap
     ethr =  1.00E-06,  avg # of iterations =  1.0

     Threshold (ethr) on eigenvalues was too large:
     Diagonalizing with lowered threshold

     Davidson diagonalization with overlap
     ethr =  2.91E-09,  avg # of iterations =  3.9
     Davidson diagonalization with overlap
     ethr =  2.91E-09,  avg # of iterations =  1.1
     Davidson diagonalization with overlap
     ethr =  2.91E-09,  avg # of iterations =  1.0
 
     Expectation value of exp(iGx): (0.170183971341401,2.428395131483624E-002)
   1.00000000000000     
     Electronic Dipole per cell (Ry a.u.)  0.675040153927717     
     Ionic Dipole per cell (Ry a.u.)   194.612099479079     
 
     Expectation value of exp(iGx): (0.171976964096558,-1.220674549344894E-006)
   1.00000000000000     
     Electronic Dipole per cell (Ry a.u.) -3.380495829672178E-005
     Ionic Dipole per cell (Ry a.u.)   194.510981908209     
 
     Expectation value of exp(iGx): (0.171976964528850,-1.215629878979860E-006)
   1.00000000000000     
     Electronic Dipole per cell (Ry a.u.) -3.366525277513058E-005
     Ionic Dipole per cell (Ry a.u.)   194.510981893412     
Electronic Dipole on Cartesian axes
           1  0.675040153927717     
           2 -3.380495829672178E-005
           3 -3.366525277513058E-005
Ionic Dipole on Cartesian axes
           1   194.612099479079     
           2   194.510981908209     
           3   194.510981893412     

     total cpu time spent up to now is      233.1 secs

     total energy              =    -604.61579999 Ry
     estimated scf accuracy    <       0.00000222 Ry

     iteration #  2     ecut=    40.00 Ry     beta= 0.50
     Davidson diagonalization with overlap
     ethr =  3.47E-09,  avg # of iterations =  1.5
     Davidson diagonalization with overlap
     ethr =  3.47E-09,  avg # of iterations =  1.0
     Davidson diagonalization with overlap
     ethr =  3.47E-09,  avg # of iterations =  1.0
 
     Expectation value of exp(iGx): (0.170202297897885,2.414576817976873E-002)
   1.00000000000000     
     Electronic Dipole per cell (Ry a.u.)  0.671178452326778     
     Ionic Dipole per cell (Ry a.u.)   194.612099479079     
 
     Expectation value of exp(iGx): (0.171975829334107,-1.220983196670040E-006)
   1.00000000000000     
     Electronic Dipole per cell (Ry a.u.) -3.381372898840866E-005
     Ionic Dipole per cell (Ry a.u.)   194.510981908209     
 
     Expectation value of exp(iGx): (0.171975829183790,-1.220127790398182E-006)
   1.00000000000000     
     Electronic Dipole per cell (Ry a.u.) -3.379003952249547E-005
     Ionic Dipole per cell (Ry a.u.)   194.510981893412     
Electronic Dipole on Cartesian axes
           1  0.671178452326778     
           2 -3.381372898840866E-005
           3 -3.379003952249547E-005
Ionic Dipole on Cartesian axes
           1   194.612099479079     
           2   194.510981908209     
           3   194.510981893412     

     total cpu time spent up to now is      250.5 secs

     total energy              =    -604.61579932 Ry
     estimated scf accuracy    <       0.00000039 Ry

     iteration #  3     ecut=    40.00 Ry     beta= 0.50
     Davidson diagonalization with overlap
     ethr =  6.07E-10,  avg # of iterations =  1.1
     Davidson diagonalization with overlap
     ethr =  6.07E-10,  avg # of iterations =  1.0
     Davidson diagonalization with overlap
     ethr =  6.07E-10,  avg # of iterations =  1.0
 
     Expectation value of exp(iGx): (0.170210776922630,2.408649077260230E-002)
   1.00000000000000     
     Electronic Dipole per cell (Ry a.u.)  0.669519456408587     
     Ionic Dipole per cell (Ry a.u.)   194.612099479079     
 
     Expectation value of exp(iGx): (0.171975726615745,-1.262842971381422E-006)
   1.00000000000000     
     Electronic Dipole per cell (Ry a.u.) -3.497300831861029E-005
     Ionic Dipole per cell (Ry a.u.)   194.510981908209     
 
     Expectation value of exp(iGx): (0.171975726515393,-1.262695485839847E-006)
   1.00000000000000     
     Electronic Dipole per cell (Ry a.u.) -3.496892389368865E-005
     Ionic Dipole per cell (Ry a.u.)   194.510981893412     
Electronic Dipole on Cartesian axes
           1  0.669519456408587     
           2 -3.497300831861029E-005
           3 -3.496892389368865E-005
Ionic Dipole on Cartesian axes
           1   194.612099479079     
           2   194.510981908209     
           3   194.510981893412     

     total cpu time spent up to now is      267.9 secs

     total energy              =    -604.61579953 Ry
     estimated scf accuracy    <       0.00000002 Ry

     iteration #  4     ecut=    40.00 Ry     beta= 0.50
     Davidson diagonalization with overlap
     ethr =  2.89E-11,  avg # of iterations =  1.2
     Davidson diagonalization with overlap
     ethr =  2.89E-11,  avg # of iterations =  1.0
     Davidson diagonalization with overlap
     ethr =  2.89E-11,  avg # of iterations =  1.0
 
     Expectation value of exp(iGx): (0.170210531950752,2.408869441935113E-002)
   1.00000000000000     
     Electronic Dipole per cell (Ry a.u.)  0.669580857133623     
     Ionic Dipole per cell (Ry a.u.)   194.612099479079     
 
     Expectation value of exp(iGx): (0.171975745159156,-1.257591888025088E-006)
   1.00000000000000     
     Electronic Dipole per cell (Ry a.u.) -3.482758174663284E-005
     Ionic Dipole per cell (Ry a.u.)   194.510981908209     
 
     Expectation value of exp(iGx): (0.171975745206562,-1.257131050570303E-006)
   1.00000000000000     
     Electronic Dipole per cell (Ry a.u.) -3.481481936612413E-005
     Ionic Dipole per cell (Ry a.u.)   194.510981893412     
Electronic Dipole on Cartesian axes
           1  0.669580857133623     
           2 -3.482758174663284E-005
           3 -3.481481936612413E-005
Ionic Dipole on Cartesian axes
           1   194.612099479079     
           2   194.510981908209     
           3   194.510981893412     

     total cpu time spent up to now is      285.9 secs

     End of self-consistent calculation

          k = 0.0000 0.0000 0.0000 (  5041 PWs)   bands (ev):

   -96.5249 -96.5247 -96.5247 -96.5023 -58.1382 -58.1372 -58.1372 -58.1353
   -58.1338 -58.1336 -58.1315 -58.1308 -58.1290 -58.1278 -58.1277 -58.1261
    -5.7207  -3.6361  -3.6361  -3.6359   0.7762   0.7762   0.7763   4.0759
     4.0798   4.0799   4.0801   4.0801   4.0825   6.3245   6.3339   6.3395

          k = 0.0000 0.0000 0.2500 (  5069 PWs)   bands (ev):

   -96.5391 -96.5259 -96.5206 -96.5204 -58.1386 -58.1375 -58.1373 -58.1369
   -58.1337 -58.1331 -58.1330 -58.1319 -58.1292 -58.1283 -58.1280 -58.1277
    -5.5081  -4.0993  -3.6185  -3.6184   0.9345   0.9345   1.5036   3.5333
     3.5337   3.6905   3.6907   4.3029   4.3032   4.9649   5.8107   5.8108

          k = 0.0000 0.0000 0.5000 (  5078 PWs)   bands (ev):

   -96.5442 -96.5440 -96.5145 -96.5144 -58.1387 -58.1386 -58.1367 -58.1365
   -58.1348 -58.1347 -58.1327 -58.1326 -58.1295 -58.1294 -58.1274 -58.1273
    -4.9078  -4.9076  -3.6005  -3.6004   1.1442   1.1442   3.0236   3.0237
     3.0912   3.0913   3.3901   3.3901   4.9354   4.9355   4.9359   4.9359

          k = 0.0000 0.0000 0.7500 (  5069 PWs)   bands (ev):

   -96.5391 -96.5259 -96.5206 -96.5204 -58.1386 -58.1375 -58.1373 -58.1369
   -58.1337 -58.1331 -58.1330 -58.1319 -58.1292 -58.1283 -58.1280 -58.1277
    -5.5081  -4.0993  -3.6185  -3.6184   0.9345   0.9345   1.5036   3.5333
     3.5337   3.6905   3.6907   4.3029   4.3032   4.9649   5.8107   5.8108

          k = 0.0000 0.2500 0.0000 (  5069 PWs)   bands (ev):

   -96.5391 -96.5259 -96.5206 -96.5204 -58.1386 -58.1375 -58.1373 -58.1369
   -58.1337 -58.1331 -58.1330 -58.1319 -58.1292 -58.1283 -58.1280 -58.1277
    -5.5081  -4.0993  -3.6185  -3.6184   0.9345   0.9345   1.5036   3.5333
     3.5337   3.6905   3.6907   4.3029   4.3032   4.9649   5.8107   5.8108

          k = 0.0000 0.2500 0.2500 (  5047 PWs)   bands (ev):

   -96.5345 -96.5187 -96.5146 -96.5145 -58.1375 -58.1373 -58.1362 -58.1361
   -58.1331 -58.1327 -58.1326 -58.1324 -58.1290 -58.1277 -58.1273 -58.1273
    -5.3050  -4.0133  -4.0132  -3.6672   1.0469   1.4287   1.4287   2.7766
     3.6795   3.6795   3.8528   4.2087   4.2088   4.4685   5.2311   6.1713

          k = 0.0000 0.2500 0.5000 (  5066 PWs)   bands (ev):

   -96.5348 -96.5347 -96.5162 -96.5161 -58.1379 -58.1377 -58.1370 -58.1364
   -58.1341 -58.1339 -58.1325 -58.1324 -58.1287 -58.1285 -58.1278 -58.1272
    -4.7433  -4.7425  -3.8225  -3.8210   1.2399   1.2477   2.5050   2.5148
     2.8494   2.8507   4.3012   4.3021   4.3668   4.3754   5.3154   5.3266

          k = 0.0000 0.2500 0.7500 (  5047 PWs)   bands (ev):

   -96.5345 -96.5187 -96.5146 -96.5145 -58.1382 -58.1369 -58.1367 -58.1366
   -58.1331 -58.1327 -58.1326 -58.1324 -58.1284 -58.1281 -58.1269 -58.1268
    -5.3054  -4.0124  -4.0123  -3.6683   1.0505   1.4222   1.4223   2.7818
     3.6798   3.6798   3.8637   4.2155   4.2156   4.4609   5.2304   6.1568

          k = 0.0000 0.5000 0.0000 (  5078 PWs)   bands (ev):

   -96.5442 -96.5440 -96.5145 -96.5144 -58.1387 -58.1386 -58.1367 -58.1365
   -58.1348 -58.1346 -58.1327 -58.1326 -58.1295 -58.1293 -58.1274 -58.1273
    -4.9078  -4.9076  -3.6005  -3.6004   1.1442   1.1442   3.0236   3.0237
     3.0912   3.0913   3.3901   3.3901   4.9354   4.9355   4.9359   4.9359

          k = 0.0000 0.5000 0.2500 (  5066 PWs)   bands (ev):

   -96.5348 -96.5347 -96.5162 -96.5161 -58.1379 -58.1377 -58.1370 -58.1364
   -58.1341 -58.1339 -58.1325 -58.1324 -58.1287 -58.1285 -58.1278 -58.1272
    -4.7433  -4.7425  -3.8225  -3.8210   1.2399   1.2477   2.5050   2.5148
     2.8494   2.8507   4.3012   4.3021   4.3668   4.3754   5.3154   5.3266

          k = 0.0000 0.5000 0.5000 (  5056 PWs)   bands (ev):

   -96.5221 -96.5218 -96.5218 -96.5218 -58.1373 -58.1372 -58.1362 -58.1361
   -58.1333 -58.1331 -58.1331 -58.1331 -58.1281 -58.1280 -58.1270 -58.1269
    -4.3116  -4.3114  -4.3101  -4.3100   1.6900   1.6901   1.7004   1.7005
     3.3525   3.3526   3.3531   3.3531   5.3968   5.3969   5.4077   5.4079

          k = 0.0000 0.5000 0.7500 (  5066 PWs)   bands (ev):

   -96.5348 -96.5347 -96.5162 -96.5161 -58.1379 -58.1377 -58.1370 -58.1364
   -58.1341 -58.1339 -58.1325 -58.1324 -58.1287 -58.1285 -58.1278 -58.1272
    -4.7433  -4.7425  -3.8225  -3.8210   1.2399   1.2477   2.5050   2.5148
     2.8494   2.8507   4.3012   4.3021   4.3668   4.3754   5.3154   5.3266

          k = 0.0000 0.7500 0.0000 (  5069 PWs)   bands (ev):

   -96.5391 -96.5259 -96.5206 -96.5204 -58.1386 -58.1375 -58.1373 -58.1369
   -58.1337 -58.1331 -58.1330 -58.1319 -58.1292 -58.1283 -58.1280 -58.1277
    -5.5081  -4.0993  -3.6185  -3.6184   0.9345   0.9345   1.5036   3.5333
     3.5337   3.6905   3.6907   4.3029   4.3032   4.9649   5.8107   5.8108

          k = 0.0000 0.7500 0.2500 (  5047 PWs)   bands (ev):

   -96.5345 -96.5187 -96.5146 -96.5145 -58.1382 -58.1369 -58.1367 -58.1366
   -58.1331 -58.1327 -58.1326 -58.1324 -58.1284 -58.1281 -58.1269 -58.1268
    -5.3054  -4.0124  -4.0123  -3.6683   1.0505   1.4222   1.4223   2.7818
     3.6798   3.6798   3.8637   4.2155   4.2156   4.4609   5.2304   6.1568

          k = 0.0000 0.7500 0.5000 (  5066 PWs)   bands (ev):

   -96.5348 -96.5347 -96.5162 -96.5161 -58.1379 -58.1377 -58.1370 -58.1364
   -58.1341 -58.1339 -58.1325 -58.1324 -58.1287 -58.1285 -58.1278 -58.1272
    -4.7433  -4.7425  -3.8225  -3.8210   1.2399   1.2477   2.5050   2.5148
     2.8494   2.8507   4.3012   4.3021   4.3668   4.3754   5.3154   5.3266

          k = 0.0000 0.7500 0.7500 (  5047 PWs)   bands (ev):

   -96.5345 -96.5187 -96.5146 -96.5145 -58.1375 -58.1373 -58.1362 -58.1361
   -58.1331 -58.1327 -58.1326 -58.1324 -58.1290 -58.1277 -58.1273 -58.1273
    -5.3050  -4.0133  -4.0132  -3.6672   1.0469   1.4287   1.4287   2.7766
     3.6795   3.6795   3.8528   4.2087   4.2088   4.4685   5.2311   6.1713

          k = 0.2500 0.0000 0.0000 (  5069 PWs)   bands (ev):

   -96.5391 -96.5259 -96.5205 -96.5204 -58.1382 -58.1375 -58.1370 -58.1369
   -58.1349 -58.1331 -58.1329 -58.1319 -58.1290 -58.1283 -58.1278 -58.1277
    -5.5081  -4.0993  -3.6185  -3.6184   0.9344   0.9345   1.5037   3.5336
     3.5337   3.6908   3.6908   4.2989   4.3059   4.9652   5.8044   5.8161

          k = 0.2500 0.0000 0.2500 (  5047 PWs)   bands (ev):

   -96.5345 -96.5187 -96.5146 -96.5145 -58.1377 -58.1372 -58.1370 -58.1364
   -58.1334 -58.1328 -58.1325 -58.1310 -58.1285 -58.1280 -58.1278 -58.1270
    -5.3052  -4.0129  -4.0127  -3.6677   1.0487   1.4255   1.4256   2.7792
     3.6794   3.6797   3.8582   4.2119   4.2121   4.4654   5.2306   6.1646

          k = 0.2500 0.0000 0.5000 (  5066 PWs)   bands (ev):

   -96.5348 -96.5347 -96.5162 -96.5161 -58.1384 -58.1382 -58.1367 -58.1365
   -58.1331 -58.1330 -58.1326 -58.1325 -58.1292 -58.1290 -58.1275 -58.1273
    -4.7430  -4.7428  -3.8218  -3.8217   1.2438   1.2438   2.5099   2.5099
     2.8499   2.8500   4.3016   4.3018   4.3713   4.3714   5.3211   5.3212

          k = 0.2500 0.0000 0.7500 (  5047 PWs)   bands (ev):

   -96.5345 -96.5187 -96.5146 -96.5145 -58.1377 -58.1372 -58.1370 -58.1364
   -58.1334 -58.1328 -58.1325 -58.1310 -58.1285 -58.1280 -58.1278 -58.1270
    -5.3052  -4.0129  -4.0128  -3.6677   1.0487   1.4255   1.4256   2.7792
     3.6794   3.6797   3.8582   4.2119   4.2121   4.4654   5.2306   6.1646

          k = 0.2500 0.2500 0.0000 (  5047 PWs)   bands (ev):

   -96.5345 -96.5187 -96.5146 -96.5145 -58.1377 -58.1372 -58.1370 -58.1364
   -58.1334 -58.1328 -58.1325 -58.1310 -58.1285 -58.1280 -58.1278 -58.1270
    -5.3052  -4.0129  -4.0127  -3.6677   1.0487   1.4255   1.4256   2.7792
     3.6794   3.6797   3.8582   4.2119   4.2121   4.4654   5.2306   6.1646

          k = 0.2500 0.2500 0.2500 (  5070 PWs)   bands (ev):

   -96.5369 -96.5230 -96.5228 -96.5228 -58.1381 -58.1380 -58.1368 -58.1367
   -58.1335 -58.1331 -58.1329 -58.1323 -58.1287 -58.1285 -58.1285 -58.1278
    -5.1164  -3.9790  -3.9789  -3.9780   1.1700   1.1751   1.1752   2.8764
     3.5017   3.5018   3.5025   4.6582   4.6582   4.6613   5.8334   5.8418

          k = 0.2500 0.2500 0.5000 (  5088 PWs)   bands (ev):

   -96.5397 -96.5396 -96.5228 -96.5226 -58.1388 -58.1381 -58.1376 -58.1371
   -58.1340 -58.1339 -58.1331 -58.1328 -58.1296 -58.1289 -58.1283 -58.1275
    -4.6053  -4.6044  -3.9432  -3.9418   0.9357   0.9421   1.7763   1.7832
     3.5530   3.5535   4.7265   4.7327   4.9688   4.9769   5.1835   5.1849

          k = 0.2500 0.2500 0.7500 (  5070 PWs)   bands (ev):

   -96.5369 -96.5230 -96.5228 -96.5228 -58.1379 -58.1377 -58.1377 -58.1373
   -58.1335 -58.1333 -58.1331 -58.1320 -58.1289 -58.1288 -58.1273 -58.1272
    -5.1168  -3.9789  -3.9781  -3.9779   1.1686   1.1687   1.1738   2.8825
     3.5077   3.5083   3.5084   4.6531   4.6575   4.6575   5.8292   5.8395

          k = 0.2500 0.5000 0.0000 (  5066 PWs)   bands (ev):

   -96.5348 -96.5347 -96.5162 -96.5161 -58.1384 -58.1382 -58.1367 -58.1365
   -58.1331 -58.1330 -58.1326 -58.1325 -58.1292 -58.1290 -58.1275 -58.1273
    -4.7430  -4.7428  -3.8218  -3.8217   1.2438   1.2438   2.5099   2.5099
     2.8499   2.8500   4.3016   4.3017   4.3713   4.3714   5.3211   5.3212

          k = 0.2500 0.5000 0.2500 (  5088 PWs)   bands (ev):

   -96.5397 -96.5396 -96.5228 -96.5226 -58.1388 -58.1381 -58.1376 -58.1371
   -58.1340 -58.1339 -58.1331 -58.1328 -58.1296 -58.1289 -58.1283 -58.1275
    -4.6053  -4.6044  -3.9432  -3.9418   0.9357   0.9421   1.7763   1.7832
     3.5530   3.5535   4.7265   4.7327   4.9688   4.9769   5.1835   5.1849

          k = 0.2500 0.5000 0.5000 (  5048 PWs)   bands (ev):

   -96.5201 -96.5199 -96.5198 -96.5198 -58.1377 -58.1376 -58.1361 -58.1360
   -58.1328 -58.1326 -58.1325 -58.1324 -58.1285 -58.1284 -58.1267 -58.1267
    -4.2676  -4.2674  -4.2660  -4.2659   1.0210   1.0211   1.0284   1.0285
     4.4337   4.4338   4.4373   4.4373   5.4348   5.4349   5.4460   5.4462

          k = 0.2500 0.5000 0.7500 (  5088 PWs)   bands (ev):

   -96.5397 -96.5396 -96.5228 -96.5226 -58.1388 -58.1381 -58.1376 -58.1371
   -58.1341 -58.1339 -58.1331 -58.1328 -58.1296 -58.1289 -58.1283 -58.1275
    -4.6053  -4.6044  -3.9432  -3.9418   0.9357   0.9421   1.7763   1.7832
     3.5530   3.5535   4.7265   4.7327   4.9688   4.9769   5.1835   5.1849

          k = 0.2500 0.7500 0.0000 (  5047 PWs)   bands (ev):

   -96.5345 -96.5187 -96.5146 -96.5145 -58.1377 -58.1372 -58.1370 -58.1364
   -58.1334 -58.1328 -58.1325 -58.1310 -58.1285 -58.1280 -58.1278 -58.1270
    -5.3052  -4.0129  -4.0128  -3.6677   1.0487   1.4255   1.4256   2.7792
     3.6794   3.6797   3.8582   4.2119   4.2121   4.4654   5.2306   6.1646

          k = 0.2500 0.7500 0.2500 (  5070 PWs)   bands (ev):

   -96.5369 -96.5230 -96.5228 -96.5228 -58.1379 -58.1377 -58.1377 -58.1373
   -58.1335 -58.1333 -58.1331 -58.1320 -58.1289 -58.1288 -58.1273 -58.1272
    -5.1168  -3.9789  -3.9781  -3.9779   1.1686   1.1687   1.1738   2.8825
     3.5077   3.5083   3.5084   4.6531   4.6575   4.6575   5.8292   5.8395

          k = 0.2500 0.7500 0.5000 (  5088 PWs)   bands (ev):

   -96.5397 -96.5396 -96.5228 -96.5226 -58.1388 -58.1381 -58.1376 -58.1371
   -58.1340 -58.1339 -58.1331 -58.1328 -58.1296 -58.1289 -58.1283 -58.1275
    -4.6053  -4.6044  -3.9432  -3.9418   0.9357   0.9421   1.7763   1.7832
     3.5530   3.5535   4.7265   4.7327   4.9688   4.9769   5.1835   5.1849

          k = 0.2500 0.7500 0.7500 (  5070 PWs)   bands (ev):

   -96.5369 -96.5230 -96.5228 -96.5228 -58.1381 -58.1380 -58.1368 -58.1367
   -58.1335 -58.1331 -58.1329 -58.1323 -58.1287 -58.1285 -58.1285 -58.1278
    -5.1164  -3.9790  -3.9789  -3.9780   1.1700   1.1751   1.1752   2.8764
     3.5017   3.5018   3.5025   4.6582   4.6582   4.6613   5.8334   5.8418

          k = 0.5000 0.0000 0.0000 (  5078 PWs)   bands (ev):

   -96.5442 -96.5440 -96.5145 -96.5144 -58.1392 -58.1391 -58.1372 -58.1371
   -58.1337 -58.1335 -58.1316 -58.1314 -58.1301 -58.1300 -58.1280 -58.1279
    -4.9078  -4.9076  -3.6005  -3.6004   1.1441   1.1442   3.0236   3.0237
     3.0913   3.0914   3.3901   3.3901   4.9308   4.9310   4.9393   4.9395

          k = 0.5000 0.0000 0.2500 (  5066 PWs)   bands (ev):

   -96.5348 -96.5347 -96.5162 -96.5161 -58.1381 -58.1380 -58.1370 -58.1370
   -58.1337 -58.1335 -58.1319 -58.1317 -58.1289 -58.1287 -58.1278 -58.1278
    -4.7430  -4.7428  -3.8218  -3.8217   1.2438   1.2438   2.5099   2.5099
     2.8500   2.8500   4.3014   4.3015   4.3713   4.3714   5.3209   5.3210

          k = 0.5000 0.0000 0.5000 (  5056 PWs)   bands (ev):

   -96.5221 -96.5218 -96.5218 -96.5218 -58.1374 -58.1372 -58.1371 -58.1371
   -58.1324 -58.1322 -58.1321 -58.1321 -58.1281 -58.1279 -58.1279 -58.1278
    -4.3108  -4.3108  -4.3108  -4.3106   1.6951   1.6952   1.6953   1.6953
     3.3527   3.3528   3.3528   3.3529   5.4028   5.4029   5.4030   5.4030

          k = 0.5000 0.0000 0.7500 (  5066 PWs)   bands (ev):

   -96.5348 -96.5347 -96.5162 -96.5161 -58.1381 -58.1380 -58.1370 -58.1370
   -58.1337 -58.1335 -58.1319 -58.1317 -58.1289 -58.1287 -58.1278 -58.1278
    -4.7430  -4.7428  -3.8218  -3.8217   1.2438   1.2438   2.5099   2.5099
     2.8500   2.8500   4.3014   4.3015   4.3713   4.3714   5.3209   5.3210

          k = 0.5000 0.2500 0.0000 (  5066 PWs)   bands (ev):

   -96.5348 -96.5347 -96.5162 -96.5161 -58.1381 -58.1380 -58.1370 -58.1370
   -58.1337 -58.1335 -58.1319 -58.1317 -58.1289 -58.1287 -58.1278 -58.1278
    -4.7430  -4.7428  -3.8218  -3.8217   1.2438   1.2438   2.5099   2.5099
     2.8500   2.8500   4.3014   4.3015   4.3713   4.3714   5.3209   5.3210

          k = 0.5000 0.2500 0.2500 (  5088 PWs)   bands (ev):

   -96.5397 -96.5396 -96.5228 -96.5226 -58.1384 -58.1383 -58.1365 -58.1364
   -58.1341 -58.1339 -58.1325 -58.1324 -58.1295 -58.1293 -58.1292 -58.1292
    -4.6046  -4.6045  -3.9431  -3.9430   0.9420   0.9421   1.7776   1.7777
     3.5483   3.5484   4.7324   4.7324   4.9700   4.9701   5.1883   5.1885

          k = 0.5000 0.2500 0.5000 (  5048 PWs)   bands (ev):

   -96.5201 -96.5199 -96.5198 -96.5198 -58.1374 -58.1373 -58.1367 -58.1366
   -58.1326 -58.1324 -58.1322 -58.1321 -58.1282 -58.1281 -58.1272 -58.1271
    -4.2673  -4.2672  -4.2662  -4.2661   1.0217   1.0218   1.0277   1.0278
     4.4324   4.4325   4.4381   4.4382   5.4404   5.4405   5.4420   5.4420

          k = 0.5000 0.2500 0.7500 (  5088 PWs)   bands (ev):

   -96.5397 -96.5396 -96.5228 -96.5226 -58.1387 -58.1385 -58.1384 -58.1384
   -58.1340 -58.1338 -58.1327 -58.1325 -58.1293 -58.1292 -58.1272 -58.1271
    -4.6052  -4.6051  -3.9421  -3.9420   0.9356   0.9357   1.7819   1.7820
     3.5581   3.5582   4.7272   4.7273   4.9761   4.9762   5.1786   5.1787

          k = 0.5000 0.5000 0.0000 (  5056 PWs)   bands (ev):

   -96.5221 -96.5218 -96.5218 -96.5218 -58.1374 -58.1371 -58.1371 -58.1371
   -58.1324 -58.1322 -58.1321 -58.1321 -58.1281 -58.1279 -58.1279 -58.1278
    -4.3108  -4.3108  -4.3108  -4.3106   1.6951   1.6952   1.6953   1.6953
     3.3527   3.3528   3.3528   3.3529   5.4028   5.4029   5.4030   5.4030

          k = 0.5000 0.5000 0.2500 (  5048 PWs)   bands (ev):

   -96.5201 -96.5199 -96.5198 -96.5198 -58.1374 -58.1373 -58.1367 -58.1366
   -58.1326 -58.1324 -58.1322 -58.1321 -58.1282 -58.1281 -58.1272 -58.1271
    -4.2673  -4.2672  -4.2662  -4.2661   1.0217   1.0218   1.0277   1.0278
     4.4324   4.4325   4.4381   4.4382   5.4404   5.4405   5.4420   5.4420

          k = 0.5000 0.5000 0.5000 (  5040 PWs)   bands (ev):

   -96.5176 -96.5173 -96.5173 -96.5173 -58.1376 -58.1375 -58.1362 -58.1361
   -58.1325 -58.1324 -58.1318 -58.1317 -58.1284 -58.1283 -58.1263 -58.1263
    -4.2212  -4.2211  -4.2196  -4.2194   0.6024   0.6026   0.6091   0.6092
     5.4751   5.4752   5.4786   5.4787   5.4856   5.4856   5.4866   5.4868

          k = 0.5000 0.5000 0.7500 (  5048 PWs)   bands (ev):

   -96.5201 -96.5199 -96.5198 -96.5198 -58.1374 -58.1373 -58.1367 -58.1366
   -58.1326 -58.1324 -58.1322 -58.1321 -58.1282 -58.1281 -58.1272 -58.1271
    -4.2673  -4.2672  -4.2662  -4.2661   1.0217   1.0218   1.0277   1.0278
     4.4324   4.4325   4.4381   4.4382   5.4404   5.4405   5.4420   5.4420

          k = 0.5000 0.7500 0.0000 (  5066 PWs)   bands (ev):

   -96.5348 -96.5347 -96.5162 -96.5161 -58.1381 -58.1380 -58.1370 -58.1370
   -58.1337 -58.1335 -58.1319 -58.1317 -58.1289 -58.1287 -58.1278 -58.1278
    -4.7430  -4.7428  -3.8218  -3.8217   1.2438   1.2438   2.5099   2.5099
     2.8500   2.8500   4.3014   4.3015   4.3713   4.3714   5.3209   5.3210

          k = 0.5000 0.7500 0.2500 (  5088 PWs)   bands (ev):

   -96.5397 -96.5396 -96.5228 -96.5226 -58.1387 -58.1385 -58.1384 -58.1384
   -58.1340 -58.1338 -58.1327 -58.1325 -58.1293 -58.1292 -58.1272 -58.1271
    -4.6052  -4.6051  -3.9421  -3.9420   0.9356   0.9357   1.7819   1.7820
     3.5581   3.5582   4.7272   4.7273   4.9761   4.9762   5.1786   5.1787

          k = 0.5000 0.7500 0.5000 (  5048 PWs)   bands (ev):

   -96.5201 -96.5199 -96.5198 -96.5198 -58.1374 -58.1373 -58.1367 -58.1366
   -58.1326 -58.1324 -58.1322 -58.1321 -58.1282 -58.1281 -58.1272 -58.1271
    -4.2673  -4.2672  -4.2662  -4.2661   1.0217   1.0218   1.0277   1.0278
     4.4324   4.4325   4.4381   4.4382   5.4404   5.4405   5.4420   5.4420

          k = 0.5000 0.7500 0.7500 (  5088 PWs)   bands (ev):

   -96.5397 -96.5396 -96.5228 -96.5226 -58.1384 -58.1383 -58.1365 -58.1364
   -58.1341 -58.1339 -58.1325 -58.1324 -58.1295 -58.1293 -58.1292 -58.1292
    -4.6046  -4.6045  -3.9431  -3.9430   0.9420   0.9421   1.7776   1.7777
     3.5483   3.5484   4.7324   4.7324   4.9700   4.9701   5.1883   5.1885

          k = 0.7500 0.0000 0.0000 (  5069 PWs)   bands (ev):

   -96.5391 -96.5259 -96.5205 -96.5204 -58.1382 -58.1375 -58.1370 -58.1369
   -58.1349 -58.1331 -58.1329 -58.1319 -58.1290 -58.1283 -58.1278 -58.1277
    -5.5081  -4.0993  -3.6185  -3.6184   0.9344   0.9345   1.5037   3.5336
     3.5337   3.6908   3.6908   4.2989   4.3059   4.9652   5.8044   5.8161

          k = 0.7500 0.0000 0.2500 (  5047 PWs)   bands (ev):

   -96.5345 -96.5187 -96.5146 -96.5145 -58.1377 -58.1372 -58.1370 -58.1364
   -58.1334 -58.1328 -58.1325 -58.1310 -58.1285 -58.1280 -58.1278 -58.1270
    -5.3052  -4.0129  -4.0128  -3.6677   1.0487   1.4255   1.4256   2.7792
     3.6794   3.6797   3.8582   4.2119   4.2121   4.4654   5.2306   6.1646

          k = 0.7500 0.0000 0.5000 (  5066 PWs)   bands (ev):

   -96.5348 -96.5347 -96.5162 -96.5161 -58.1384 -58.1382 -58.1367 -58.1365
   -58.1331 -58.1330 -58.1326 -58.1325 -58.1292 -58.1290 -58.1275 -58.1273
    -4.7430  -4.7428  -3.8218  -3.8217   1.2438   1.2438   2.5099   2.5099
     2.8499   2.8500   4.3016   4.3018   4.3713   4.3714   5.3211   5.3212

          k = 0.7500 0.0000 0.7500 (  5047 PWs)   bands (ev):

   -96.5345 -96.5187 -96.5146 -96.5145 -58.1377 -58.1372 -58.1370 -58.1364
   -58.1334 -58.1328 -58.1325 -58.1310 -58.1285 -58.1280 -58.1278 -58.1270
    -5.3052  -4.0129  -4.0127  -3.6677   1.0487   1.4255   1.4256   2.7792
     3.6794   3.6797   3.8582   4.2119   4.2121   4.4654   5.2306   6.1646

          k = 0.7500 0.2500 0.0000 (  5047 PWs)   bands (ev):

   -96.5345 -96.5187 -96.5146 -96.5145 -58.1377 -58.1372 -58.1370 -58.1364
   -58.1334 -58.1328 -58.1325 -58.1310 -58.1285 -58.1280 -58.1278 -58.1270
    -5.3052  -4.0129  -4.0128  -3.6677   1.0487   1.4255   1.4256   2.7792
     3.6794   3.6797   3.8582   4.2119   4.2121   4.4654   5.2306   6.1646

          k = 0.7500 0.2500 0.2500 (  5070 PWs)   bands (ev):

   -96.5369 -96.5230 -96.5228 -96.5228 -58.1381 -58.1380 -58.1368 -58.1367
   -58.1335 -58.1331 -58.1329 -58.1323 -58.1287 -58.1285 -58.1285 -58.1278
    -5.1164  -3.9790  -3.9789  -3.9780   1.1700   1.1751   1.1752   2.8764
     3.5017   3.5018   3.5025   4.6582   4.6582   4.6613   5.8334   5.8418

          k = 0.7500 0.2500 0.5000 (  5088 PWs)   bands (ev):

[...]
    -4.9078  -4.9075  -3.6006  -3.6003   1.1441   1.1441   3.0237   3.0238
     3.0914   3.0914   3.3901   3.3901   4.9247   4.9250   4.9452   4.9456

          k = 0.5000 0.0000 0.2500 (  5066 PWs)   bands (ev):

   -96.5349 -96.5348 -96.5163 -96.5162 -58.1386 -58.1385 -58.1376 -58.1375
   -58.1339 -58.1337 -58.1321 -58.1319 -58.1286 -58.1285 -58.1276 -58.1275
    -4.7430  -4.7427  -3.8219  -3.8216   1.2437   1.2438   2.5099   2.5099
     2.8499   2.8501   4.3012   4.3015   4.3714   4.3714   5.3209   5.3211

          k = 0.5000 0.0000 0.5000 (  5056 PWs)   bands (ev):

   -96.5223 -96.5220 -96.5220 -96.5220 -58.1379 -58.1377 -58.1377 -58.1376
   -58.1326 -58.1324 -58.1323 -58.1323 -58.1278 -58.1276 -58.1276 -58.1276
    -4.3109  -4.3109  -4.3109  -4.3103   1.6950   1.6952   1.6953   1.6953
     3.3525   3.3528   3.3528   3.3530   5.4027   5.4029   5.4032   5.4032

          k = 0.5000 0.0000 0.7500 (  5066 PWs)   bands (ev):

   -96.5349 -96.5348 -96.5163 -96.5162 -58.1386 -58.1385 -58.1376 -58.1375
   -58.1339 -58.1337 -58.1321 -58.1319 -58.1286 -58.1285 -58.1276 -58.1275
    -4.7430  -4.7427  -3.8219  -3.8216   1.2437   1.2438   2.5099   2.5099
     2.8499   2.8501   4.3012   4.3015   4.3714   4.3714   5.3209   5.3211

          k = 0.5000 0.2500 0.0000 (  5066 PWs)   bands (ev):

   -96.5349 -96.5348 -96.5163 -96.5162 -58.1386 -58.1385 -58.1376 -58.1375
   -58.1339 -58.1337 -58.1321 -58.1319 -58.1286 -58.1285 -58.1276 -58.1275
    -4.7430  -4.7427  -3.8219  -3.8216   1.2437   1.2438   2.5099   2.5099
     2.8499   2.8501   4.3012   4.3015   4.3714   4.3714   5.3209   5.3211

          k = 0.5000 0.2500 0.2500 (  5088 PWs)   bands (ev):

   -96.5399 -96.5397 -96.5229 -96.5228 -58.1390 -58.1388 -58.1370 -58.1369
   -58.1343 -58.1341 -58.1327 -58.1326 -58.1292 -58.1290 -58.1290 -58.1290
    -4.6042  -4.6039  -3.9440  -3.9437   0.9468   0.9470   1.7742   1.7744
     3.5411   3.5413   4.7361   4.7361   4.9657   4.9658   5.1950   5.1954

          k = 0.5000 0.2500 0.5000 (  5048 PWs)   bands (ev):

   -96.5203 -96.5200 -96.5200 -96.5200 -58.1380 -58.1378 -58.1372 -58.1371
   -58.1327 -58.1325 -58.1324 -58.1322 -58.1280 -58.1278 -58.1270 -58.1269
    -4.2683  -4.2681  -4.2653  -4.2650   1.0171   1.0173   1.0322   1.0324
     4.4281   4.4283   4.4421   4.4424   5.4394   5.4396   5.4431   5.4432

          k = 0.5000 0.2500 0.7500 (  5088 PWs)   bands (ev):

   -96.5399 -96.5397 -96.5229 -96.5228 -58.1392 -58.1390 -58.1390 -58.1389
   -58.1342 -58.1340 -58.1328 -58.1327 -58.1290 -58.1289 -58.1270 -58.1269
    -4.6058  -4.6055  -3.9413  -3.9410   0.9307   0.9309   1.7852   1.7853
     3.5651   3.5654   4.7236   4.7237   4.9805   4.9806   5.1716   5.1720

          k = 0.5000 0.5000 0.0000 (  5056 PWs)   bands (ev):

   -96.5223 -96.5220 -96.5220 -96.5220 -58.1379 -58.1377 -58.1377 -58.1376
   -58.1326 -58.1324 -58.1323 -58.1323 -58.1278 -58.1276 -58.1276 -58.1276
    -4.3109  -4.3109  -4.3109  -4.3103   1.6950   1.6952   1.6953   1.6953
     3.3525   3.3528   3.3528   3.3530   5.4027   5.4029   5.4032   5.4032

          k = 0.5000 0.5000 0.2500 (  5048 PWs)   bands (ev):

   -96.5203 -96.5200 -96.5200 -96.5200 -58.1380 -58.1378 -58.1372 -58.1371
   -58.1327 -58.1325 -58.1324 -58.1322 -58.1280 -58.1278 -58.1270 -58.1269
    -4.2683  -4.2681  -4.2653  -4.2650   1.0171   1.0173   1.0322   1.0324
     4.4281   4.4283   4.4421   4.4424   5.4394   5.4396   5.4431   5.4432

          k = 0.5000 0.5000 0.5000 (  5040 PWs)   bands (ev):

   -96.5177 -96.5175 -96.5174 -96.5174 -58.1381 -58.1380 -58.1367 -58.1366
   -58.1327 -58.1325 -58.1320 -58.1319 -58.1282 -58.1281 -58.1261 -58.1260
    -4.2226  -4.2224  -4.2183  -4.2180   0.5972   0.5975   0.6142   0.6144
     5.4670   5.4673   5.4740   5.4741   5.4903   5.4904   5.4945   5.4949

          k = 0.5000 0.5000 0.7500 (  5048 PWs)   bands (ev):

   -96.5203 -96.5200 -96.5200 -96.5200 -58.1380 -58.1378 -58.1372 -58.1371
   -58.1327 -58.1325 -58.1324 -58.1322 -58.1280 -58.1278 -58.1270 -58.1269
    -4.2683  -4.2681  -4.2653  -4.2650   1.0171   1.0173   1.0322   1.0324
     4.4281   4.4283   4.4421   4.4424   5.4394   5.4396   5.4431   5.4432

          k = 0.5000 0.7500 0.0000 (  5066 PWs)   bands (ev):

   -96.5349 -96.5348 -96.5163 -96.5162 -58.1386 -58.1385 -58.1376 -58.1375
   -58.1339 -58.1337 -58.1321 -58.1319 -58.1286 -58.1285 -58.1276 -58.1275
    -4.7430  -4.7427  -3.8219  -3.8216   1.2437   1.2438   2.5099   2.5099
     2.8499   2.8501   4.3012   4.3015   4.3714   4.3714   5.3209   5.3211

          k = 0.5000 0.7500 0.2500 (  5088 PWs)   bands (ev):

   -96.5399 -96.5397 -96.5229 -96.5228 -58.1392 -58.1390 -58.1390 -58.1389
   -58.1342 -58.1340 -58.1328 -58.1327 -58.1290 -58.1289 -58.1270 -58.1269
    -4.6058  -4.6055  -3.9413  -3.9410   0.9307   0.9309   1.7852   1.7853
     3.5651   3.5654   4.7236   4.7237   4.9805   4.9806   5.1716   5.1720

          k = 0.5000 0.7500 0.5000 (  5048 PWs)   bands (ev):

   -96.5203 -96.5200 -96.5200 -96.5200 -58.1380 -58.1378 -58.1372 -58.1371
   -58.1327 -58.1325 -58.1324 -58.1322 -58.1280 -58.1278 -58.1270 -58.1269
    -4.2683  -4.2681  -4.2653  -4.2650   1.0171   1.0173   1.0322   1.0324
     4.4281   4.4283   4.4421   4.4424   5.4394   5.4396   5.4431   5.4432

          k = 0.5000 0.7500 0.7500 (  5088 PWs)   bands (ev):

   -96.5399 -96.5397 -96.5229 -96.5228 -58.1390 -58.1388 -58.1370 -58.1369
   -58.1343 -58.1341 -58.1327 -58.1326 -58.1292 -58.1290 -58.1290 -58.1290
    -4.6042  -4.6039  -3.9440  -3.9437   0.9468   0.9470   1.7742   1.7744
     3.5411   3.5413   4.7361   4.7361   4.9657   4.9658   5.1950   5.1954

          k = 0.7500 0.0000 0.0000 (  5069 PWs)   bands (ev):

   -96.5393 -96.5260 -96.5207 -96.5205 -58.1387 -58.1380 -58.1375 -58.1374
   -58.1351 -58.1333 -58.1331 -58.1320 -58.1288 -58.1280 -58.1275 -58.1274
    -5.5081  -4.0993  -3.6186  -3.6183   0.9344   0.9344   1.5037   3.5337
     3.5337   3.6908   3.6908   4.2937   4.3110   4.9652   5.7965   5.8240

          k = 0.7500 0.0000 0.2500 (  5047 PWs)   bands (ev):

   -96.5346 -96.5188 -96.5148 -96.5146 -58.1383 -58.1377 -58.1375 -58.1369
   -58.1336 -58.1329 -58.1327 -58.1311 -58.1283 -58.1277 -58.1275 -58.1268
    -5.3052  -4.0129  -4.0127  -3.6677   1.0486   1.4254   1.4256   2.7792
     3.6793   3.6797   3.8581   4.2120   4.2123   4.4654   5.2305   6.1648

          k = 0.7500 0.0000 0.5000 (  5066 PWs)   bands (ev):

   -96.5349 -96.5348 -96.5163 -96.5162 -58.1389 -58.1387 -58.1372 -58.1371
   -58.1333 -58.1331 -58.1328 -58.1327 -58.1289 -58.1288 -58.1272 -58.1271
    -4.7430  -4.7427  -3.8219  -3.8216   1.2438   1.2438   2.5098   2.5099
     2.8499   2.8500   4.3015   4.3018   4.3713   4.3714   5.3211   5.3213

          k = 0.7500 0.0000 0.7500 (  5047 PWs)   bands (ev):

   -96.5346 -96.5188 -96.5148 -96.5146 -58.1383 -58.1377 -58.1375 -58.1369
   -58.1336 -58.1329 -58.1327 -58.1311 -58.1283 -58.1277 -58.1275 -58.1268
    -5.3052  -4.0129  -4.0127  -3.6677   1.0486   1.4254   1.4256   2.7792
     3.6793   3.6797   3.8581   4.2120   4.2123   4.4655   5.2305   6.1648

          k = 0.7500 0.2500 0.0000 (  5047 PWs)   bands (ev):

   -96.5346 -96.5188 -96.5148 -96.5146 -58.1383 -58.1377 -58.1375 -58.1369
   -58.1336 -58.1329 -58.1327 -58.1311 -58.1283 -58.1277 -58.1275 -58.1268
    -5.3052  -4.0129  -4.0127  -3.6677   1.0486   1.4254   1.4256   2.7792
     3.6793   3.6797   3.8581   4.2120   4.2123   4.4654   5.2305   6.1648

          k = 0.7500 0.2500 0.2500 (  5070 PWs)   bands (ev):

   -96.5370 -96.5231 -96.5229 -96.5229 -58.1386 -58.1385 -58.1373 -58.1372
   -58.1337 -58.1333 -58.1331 -58.1325 -58.1285 -58.1282 -58.1282 -58.1276
    -5.1160  -3.9799  -3.9796  -3.9773   1.1672   1.1800   1.1802   2.8719
     3.4968   3.4970   3.4986   4.6587   4.6588   4.6671   5.8294   5.8503

          k = 0.7500 0.2500 0.5000 (  5088 PWs)   bands (ev):

   -96.5399 -96.5397 -96.5229 -96.5228 -58.1393 -58.1387 -58.1381 -58.1376
   -58.1342 -58.1341 -58.1332 -58.1329 -58.1293 -58.1287 -58.1281 -58.1273
    -4.6060  -4.6037  -3.9443  -3.9407   0.9308   0.9469   1.7711   1.7884
     3.5525   3.5540   4.7220   4.7373   4.9628   4.9824   5.1829   5.1860

          k = 0.7500 0.2500 0.7500 (  5070 PWs)   bands (ev):

   -96.5371 -96.5231 -96.5229 -96.5229 -58.1385 -58.1382 -58.1382 -58.1378
   -58.1337 -58.1334 -58.1333 -58.1322 -58.1287 -58.1285 -58.1271 -58.1270
    -5.1172  -3.9797  -3.9773  -3.9770   1.1635   1.1638   1.1767   2.8870
     3.5117   3.5131   3.5132   4.6473   4.6571   4.6572   5.8207   5.8437

          k = 0.7500 0.5000 0.0000 (  5066 PWs)   bands (ev):

   -96.5349 -96.5348 -96.5163 -96.5162 -58.1389 -58.1387 -58.1372 -58.1371
   -58.1333 -58.1331 -58.1328 -58.1327 -58.1289 -58.1288 -58.1272 -58.1271
    -4.7430  -4.7427  -3.8219  -3.8216   1.2438   1.2438   2.5098   2.5099
     2.8499   2.8500   4.3015   4.3018   4.3713   4.3714   5.3211   5.3213

          k = 0.7500 0.5000 0.2500 (  5088 PWs)   bands (ev):

   -96.5399 -96.5397 -96.5229 -96.5228 -58.1393 -58.1387 -58.1381 -58.1376
   -58.1342 -58.1341 -58.1332 -58.1329 -58.1293 -58.1287 -58.1281 -58.1273
    -4.6060  -4.6037  -3.9443  -3.9407   0.9308   0.9469   1.7711   1.7884
     3.5525   3.5540   4.7220   4.7373   4.9628   4.9824   5.1829   5.1860

          k = 0.7500 0.5000 0.5000 (  5048 PWs)   bands (ev):

   -96.5203 -96.5200 -96.5200 -96.5200 -58.1382 -58.1381 -58.1366 -58.1365
   -58.1330 -58.1327 -58.1327 -58.1326 -58.1282 -58.1281 -58.1265 -58.1264
    -4.2689  -4.2686  -4.2648  -4.2645   1.0153   1.0155   1.0340   1.0342
     4.4312   4.4313   4.4399   4.4399   5.4269   5.4272   5.4537   5.4541

          k = 0.7500 0.5000 0.7500 (  5088 PWs)   bands (ev):

   -96.5399 -96.5397 -96.5229 -96.5228 -58.1393 -58.1387 -58.1381 -58.1376
   -58.1342 -58.1341 -58.1332 -58.1329 -58.1293 -58.1287 -58.1281 -58.1273
    -4.6060  -4.6037  -3.9443  -3.9407   0.9308   0.9469   1.7711   1.7885
     3.5525   3.5540   4.7220   4.7373   4.9628   4.9824   5.1829   5.1860

          k = 0.7500 0.7500 0.0000 (  5047 PWs)   bands (ev):

   -96.5346 -96.5188 -96.5148 -96.5146 -58.1383 -58.1377 -58.1375 -58.1369
   -58.1336 -58.1329 -58.1327 -58.1311 -58.1283 -58.1277 -58.1275 -58.1268
    -5.3052  -4.0129  -4.0127  -3.6677   1.0486   1.4254   1.4256   2.7792
     3.6793   3.6797   3.8581   4.2120   4.2123   4.4655   5.2305   6.1648

          k = 0.7500 0.7500 0.2500 (  5070 PWs)   bands (ev):

   -96.5371 -96.5231 -96.5229 -96.5229 -58.1385 -58.1382 -58.1382 -58.1378
   -58.1337 -58.1334 -58.1333 -58.1322 -58.1287 -58.1285 -58.1271 -58.1270
    -5.1172  -3.9797  -3.9773  -3.9770   1.1635   1.1638   1.1767   2.8870
     3.5117   3.5131   3.5132   4.6473   4.6571   4.6572   5.8207   5.8437

          k = 0.7500 0.7500 0.5000 (  5088 PWs)   bands (ev):

   -96.5399 -96.5397 -96.5229 -96.5228 -58.1393 -58.1387 -58.1381 -58.1376
   -58.1342 -58.1341 -58.1332 -58.1329 -58.1293 -58.1287 -58.1281 -58.1273
    -4.6060  -4.6037  -3.9443  -3.9407   0.9308   0.9469   1.7711   1.7885
     3.5525   3.5540   4.7220   4.7373   4.9628   4.9824   5.1829   5.1860

          k = 0.7500 0.7500 0.7500 (  5070 PWs)   bands (ev):

   -96.5370 -96.5231 -96.5229 -96.5229 -58.1386 -58.1385 -58.1373 -58.1372
   -58.1337 -58.1333 -58.1331 -58.1325 -58.1285 -58.1282 -58.1282 -58.1276
    -5.1160  -3.9799  -3.9796  -3.9773   1.1672   1.1800   1.1802   2.8719
     3.4968   3.4970   3.4986   4.6587   4.6588   4.6671   5.8294   5.8502

     highest occupied level (ev):     6.3492

!    total energy              =    -604.61582665 Ry
     estimated scf accuracy    <          3.0E-11 Ry

     The total energy is the sum of the following terms:
     one-electron contribution =    -427.61165742 Ry
     hartree contribution      =     185.09656988 Ry
     xc contribution           =     -75.47758004 Ry
     ewald contribution        =    -286.42779929 Ry

     convergence has been achieved in   5 iterations

     Forces acting on atoms (cartesian axes, Ry/au):

     atom    1 type  1   force =     0.00033139   -0.00000317   -0.00000321
     atom    2 type  1   force =     0.00033690    0.00000943   -0.00001320
     atom    3 type  1   force =     0.00033690   -0.00001317    0.00000947
     atom    4 type  1   force =     0.00032410    0.00000762    0.00000766
     atom    5 type  2   force =    -0.00033001    0.00000264    0.00000260
     atom    6 type  2   force =    -0.00033172    0.00000000   -0.00000332
     atom    7 type  2   force =    -0.00033172   -0.00000327    0.00000005
     atom    8 type  2   force =    -0.00033584   -0.00000009   -0.00000004
     The non-local contrib.  to forces
     atom    1 type  1   force =    -0.02015236   -0.00007073   -0.00007069
     atom    2 type  1   force =    -0.02001306    0.00009130   -0.00009041
     atom    3 type  1   force =    -0.02001306   -0.00009045    0.00009126
     atom    4 type  1   force =    -0.02016696    0.00008756    0.00008752
     atom    5 type  2   force =    -0.00915202    0.00000571    0.00000582
     atom    6 type  2   force =    -0.00915688    0.00000017    0.00000159
     atom    7 type  2   force =    -0.00915688    0.00000148    0.00000005
     atom    8 type  2   force =    -0.00915403    0.00000009   -0.00000001
     The ionic contribution  to forces
     atom    1 type  1   force =    -0.01890378    0.00058916    0.00058833
     atom    2 type  1   force =    -0.02009847   -0.00065688    0.00068382
     atom    3 type  1   force =    -0.02009847    0.00068468   -0.00065608
     atom    4 type  1   force =    -0.01881088   -0.00065597   -0.00065507
     atom    5 type  2   force =     0.01955802    0.00008221    0.00008200
     atom    6 type  2   force =     0.01947001    0.00000512   -0.00005291
     atom    7 type  2   force =     0.01947001   -0.00005263    0.00000541
     atom    8 type  2   force =     0.01941356    0.00000431    0.00000451
     The local contribution  to forces
     atom    1 type  1   force =     0.02383705   -0.00051896   -0.00051809
     atom    2 type  1   force =     0.02489666    0.00057640   -0.00060392
     atom    3 type  1   force =     0.02489664   -0.00060483    0.00057557
     atom    4 type  1   force =     0.02375141    0.00057740    0.00057647
     atom    5 type  2   force =    -0.01780710   -0.00008264   -0.00008325
     atom    6 type  2   force =    -0.01771266   -0.00000395    0.00004997
     atom    7 type  2   force =    -0.01771266    0.00005052   -0.00000341
     atom    8 type  2   force =    -0.01766645   -0.00000315   -0.00000254
     The core correction contribution to forces
     atom    1 type  1   force =     0.00000000    0.00000000    0.00000000
     atom    2 type  1   force =     0.00000000    0.00000000    0.00000000
     atom    3 type  1   force =     0.00000000    0.00000000    0.00000000
     atom    4 type  1   force =     0.00000000    0.00000000    0.00000000
     atom    5 type  2   force =     0.00000000    0.00000000    0.00000000
     atom    6 type  2   force =     0.00000000    0.00000000    0.00000000
     atom    7 type  2   force =     0.00000000    0.00000000    0.00000000
     atom    8 type  2   force =     0.00000000    0.00000000    0.00000000
     The Hubbard contrib.    to forces
     atom    1 type  1   force =     0.00000000    0.00000000    0.00000000
     atom    2 type  1   force =     0.00000000    0.00000000    0.00000000
     atom    3 type  1   force =     0.00000000    0.00000000    0.00000000
     atom    4 type  1   force =     0.00000000    0.00000000    0.00000000
     atom    5 type  2   force =     0.00000000    0.00000000    0.00000000
     atom    6 type  2   force =     0.00000000    0.00000000    0.00000000
     atom    7 type  2   force =     0.00000000    0.00000000    0.00000000
     atom    8 type  2   force =     0.00000000    0.00000000    0.00000000
     The SCF correction term to forces
     atom    1 type  1   force =    -0.00000416   -0.00000065   -0.00000077
     atom    2 type  1   force =    -0.00000286    0.00000060   -0.00000070
     atom    3 type  1   force =    -0.00000284   -0.00000058    0.00000071
     atom    4 type  1   force =    -0.00000410    0.00000062    0.00000073
     atom    5 type  2   force =     0.00000173   -0.00000065    0.00000001
     atom    6 type  2   force =    -0.00000154    0.00000066    0.00000002
     atom    7 type  2   force =    -0.00000154   -0.00000065   -0.00000002
     atom    8 type  2   force =     0.00000173    0.00000065   -0.00000002

     Total force =     0.000940     Total SCF correction =     0.000008
     Energy error            =      2.7E-05 Ry
     Gradient error          =      3.4E-04 Ry/Bohr

     bfgs converged in   3 scf cycles and   2 bfgs steps
     (criteria: energy <  1.0E-04 Ry, force <  1.0E-03 Ry/Bohr)

     End of BFGS Geometry Optimization

     Final energy             =    -604.6158266490 Ry

     File ../tmp/alas.bfgs deleted, as requested
Begin final coordinates

ATOMIC_POSITIONS (alat)
Al           -0.1244135915       -0.1250050458       -0.1250050358
Al            0.3755983833        0.3750075620       -0.1250087166
Al            0.3755983861       -0.1250087254        0.3750075516
Al           -0.1244171674        0.3750073690        0.3750073606
As            0.1244086247        0.1249998755        0.1249998830
As            0.6244086670        0.6249998860        0.1249992413
As            0.6244086659        0.1249992331        0.6249998807
As            0.1244080319        0.6249998455        0.6249998352
End final coordinates



     Writing all to output data dir ../tmp/alas.save/
 
     init_run     :      0.76s CPU      0.79s WALL (       1 calls)
     electrons    :    387.80s CPU    394.28s WALL (       3 calls)
     update_pot   :      0.03s CPU      0.03s WALL (       2 calls)
     forces       :      0.88s CPU      0.90s WALL (       3 calls)

     Called by init_run:
     wfcinit      :      0.72s CPU      0.75s WALL (       1 calls)
     potinit      :      0.01s CPU      0.01s WALL (       1 calls)
     hinit0       :      0.01s CPU      0.01s WALL (       1 calls)

     Called by electrons:
     c_bands      :    319.91s CPU    325.64s WALL (      63 calls)
     sum_band     :      6.24s CPU      6.32s WALL (      21 calls)
     v_of_rho     :      0.12s CPU      0.13s WALL (      21 calls)
     mix_rho      :      0.02s CPU      0.02s WALL (      21 calls)

     Called by c_bands:
     init_us_2    :      1.79s CPU      1.86s WALL (    5632 calls)
     init_us_2:cp :      1.78s CPU      1.85s WALL (    5632 calls)
     cegterg      :    299.65s CPU    305.18s WALL (    4032 calls)

     Called by *egterg:
     cdiaghg      :      6.35s CPU      6.39s WALL (    8910 calls)
     h_psi        :    284.05s CPU    289.45s WALL (   10062 calls)
     g_psi        :      0.53s CPU      0.54s WALL (    5966 calls)

     Called by h_psi:
     h_psi:calbec :      4.38s CPU      4.45s WALL (   10062 calls)
     vloc_psi     :     71.82s CPU     72.93s WALL (   10062 calls)
     add_vuspsi   :      4.10s CPU      4.14s WALL (   10062 calls)

     General routines
     calbec       :      4.81s CPU      4.90s WALL (   10830 calls)
     fft          :      0.05s CPU      0.06s WALL (     218 calls)
     ffts         :      0.00s CPU      0.00s WALL (      21 calls)
     fftw         :     68.46s CPU     69.51s WALL (  615746 calls)
     davcio       :      0.01s CPU      0.01s WALL (     128 calls)
 
     Parallel routines

     Electric-field routines
     h_epsi_set   :     49.47s CPU     49.92s WALL (      63 calls)
     h_epsi_apply :    203.31s CPU    207.49s WALL (    9998 calls)
     c_phase_fiel :     12.06s CPU     12.26s WALL (      54 calls)
 
     PWSCF        :   6m29.71s CPU   6m36.47s WALL

 
   This run was terminated on:  18:46:35  21Apr2026            

=------------------------------------------------------------------------------=
   JOB DONE.
=------------------------------------------------------------------------------=
