
     Program PWSCF v.7.2 starts on 15Apr2026 at 19:32:30 

     This program is part of the open-source Quantum ESPRESSO suite
     for quantum simulation of materials; please cite
         "P. Giannozzi et al., J. Phys.:Condens. Matter 21 395502 (2009);
         "P. Giannozzi et al., J. Phys.:Condens. Matter 29 465901 (2017);
         "P. Giannozzi et al., J. Chem. Phys. 152 154105 (2020);
          URL http://www.quantum-espresso.org", 
     in publications or presentations arising from this work. More details at
     http://www.quantum-espresso.org/quote

     Parallel version (MPI & OpenMP), running on       4 processor cores
     Number of MPI processes:                 4
     Threads/MPI process:                     1

     MPI processes distributed on     1 nodes
     5380 MiB available memory on the printing compute node when the environment starts
 
     Waiting for input...
     Reading input from standard input

     Current dimensions of program PWSCF are:
     Max number of different atomic species (ntypx) = 10
     Max number of k-points (npk) =  40000
     Max angular momentum in pseudopotentials (lmaxx) =  4
     Found identity + ( -0.5000 -0.5000  0.0000) symmetry
     This is a supercell, fractional translations are disabled
 
     R & G space division:  proc/nbgrp/npool/nimage =       4
     Subspace diagonalization in iterative solution of the eigenvalue problem:
     a serial algorithm will be used

 
     Parallelization info
     --------------------
     sticks:   dense  smooth     PW     G-vecs:    dense   smooth      PW
     Min         221     221     73                 5001     5001     971
     Max         222     222     74                 5002     5002     974
     Sum         885     885    293                20005    20005    3887
 
     Using Slab Decomposition
 


     bravais-lattice index     =            1
     lattice parameter (alat)  =      10.5800  a.u.
     unit-cell volume          =    1184.2871 (a.u.)^3
     number of atoms/cell      =            8
     number of atomic types    =            2
     number of electrons       =        64.00
     number of Kohn-Sham states=           32
     kinetic-energy cutoff     =      25.0000  Ry
     charge density cutoff     =     100.0000  Ry
     scf convergence threshold =      1.0E-08
     mixing beta               =       0.5000
     number of iterations used =            8  plain     mixing
     energy convergence thresh.=      1.0E-04
     force convergence thresh. =      1.0E-03
     Exchange-correlation= PBE
                           (   1   4   3   4   0   0   0)
     nstep                     =           50

 
     Using Berry phase electric field
     In a.u.(Ry)  cartesian system of reference
        0.0010000000
        0.0000000000
        0.0000000000
     In a.u.(Ry)  crystal system of reference
        0.0010000000
        0.0000000000
        0.0000000000
     Number of iterative cycles:   3
 

     celldm(1)=  10.580000  celldm(2)=   0.000000  celldm(3)=   0.000000
     celldm(4)=   0.000000  celldm(5)=   0.000000  celldm(6)=   0.000000

     crystal axes: (cart. coord. in units of alat)
               a(1) = (   1.000000   0.000000   0.000000 )  
               a(2) = (   0.000000   1.000000   0.000000 )  
               a(3) = (   0.000000   0.000000   1.000000 )  

     reciprocal axes: (cart. coord. in units 2 pi/alat)
               b(1) = (  1.000000  0.000000  0.000000 )  
               b(2) = (  0.000000  1.000000  0.000000 )  
               b(3) = (  0.000000  0.000000  1.000000 )  


     PseudoPot. # 1 for Al read from file:
     ../../pseudo/Al_ONCV_PBE-1.2.upf
     MD5 check sum: 2d9e7bc02555220d62fad08c3c4858e7
     Pseudo is Norm-conserving, Zval = 11.0
     Generated using ONCVPSP code by D. R. Hamann
     Using radial grid of  602 points,  4 beta functions with: 
                l(1) =   0
                l(2) =   0
                l(3) =   1
                l(4) =   1

     PseudoPot. # 2 for As read from file:
     ../../pseudo/As_ONCV_PBE-1.2.upf
     MD5 check sum: a2ff92a4799c87c945fff9e6739df4dd
     Pseudo is Norm-conserving, Zval =  5.0
     Generated using ONCVPSP code by D. R. Hamann
     Using radial grid of  602 points,  6 beta functions with: 
                l(1) =   0
                l(2) =   0
                l(3) =   1
                l(4) =   1
                l(5) =   2
                l(6) =   2

     atomic species   valence    mass     pseudopotential
        Al            11.00    26.98200     Al( 1.00)
        As             5.00    74.92200     As( 1.00)

     No symmetry found



   Cartesian axes

     site n.     atom                  positions (alat units)
         1           Al  tau(   1) = (  -0.1250000  -0.1250000  -0.1250000  )
         2           Al  tau(   2) = (   0.3750000   0.3750000  -0.1250000  )
         3           Al  tau(   3) = (   0.3750000  -0.1250000   0.3750000  )
         4           Al  tau(   4) = (  -0.1250000   0.3750000   0.3750000  )
         5           As  tau(   5) = (   0.1250000   0.1250000   0.1250000  )
         6           As  tau(   6) = (   0.6250000   0.6250000   0.1250000  )
         7           As  tau(   7) = (   0.6250000   0.1250000   0.6250000  )
         8           As  tau(   8) = (   0.1250000   0.6250000   0.6250000  )

     number of k points=    64
                       cart. coord. in units 2pi/alat
        k(    1) = (   0.0000000   0.0000000   0.0000000), wk =   0.0312500
        k(    2) = (   0.0000000   0.0000000   0.2500000), wk =   0.0312500
        k(    3) = (   0.0000000   0.0000000   0.5000000), wk =   0.0312500
        k(    4) = (   0.0000000   0.0000000   0.7500000), wk =   0.0312500
        k(    5) = (   0.0000000   0.2500000   0.0000000), wk =   0.0312500
        k(    6) = (   0.0000000   0.2500000   0.2500000), wk =   0.0312500
        k(    7) = (   0.0000000   0.2500000   0.5000000), wk =   0.0312500
        k(    8) = (   0.0000000   0.2500000   0.7500000), wk =   0.0312500
        k(    9) = (   0.0000000   0.5000000   0.0000000), wk =   0.0312500
        k(   10) = (   0.0000000   0.5000000   0.2500000), wk =   0.0312500
        k(   11) = (   0.0000000   0.5000000   0.5000000), wk =   0.0312500
        k(   12) = (   0.0000000   0.5000000   0.7500000), wk =   0.0312500
        k(   13) = (   0.0000000   0.7500000   0.0000000), wk =   0.0312500
        k(   14) = (   0.0000000   0.7500000   0.2500000), wk =   0.0312500
        k(   15) = (   0.0000000   0.7500000   0.5000000), wk =   0.0312500
        k(   16) = (   0.0000000   0.7500000   0.7500000), wk =   0.0312500
        k(   17) = (   0.2500000   0.0000000   0.0000000), wk =   0.0312500
        k(   18) = (   0.2500000   0.0000000   0.2500000), wk =   0.0312500
        k(   19) = (   0.2500000   0.0000000   0.5000000), wk =   0.0312500
        k(   20) = (   0.2500000   0.0000000   0.7500000), wk =   0.0312500
        k(   21) = (   0.2500000   0.2500000   0.0000000), wk =   0.0312500
        k(   22) = (   0.2500000   0.2500000   0.2500000), wk =   0.0312500
        k(   23) = (   0.2500000   0.2500000   0.5000000), wk =   0.0312500
        k(   24) = (   0.2500000   0.2500000   0.7500000), wk =   0.0312500
        k(   25) = (   0.2500000   0.5000000   0.0000000), wk =   0.0312500
        k(   26) = (   0.2500000   0.5000000   0.2500000), wk =   0.0312500
        k(   27) = (   0.2500000   0.5000000   0.5000000), wk =   0.0312500
        k(   28) = (   0.2500000   0.5000000   0.7500000), wk =   0.0312500
        k(   29) = (   0.2500000   0.7500000   0.0000000), wk =   0.0312500
        k(   30) = (   0.2500000   0.7500000   0.2500000), wk =   0.0312500
        k(   31) = (   0.2500000   0.7500000   0.5000000), wk =   0.0312500
        k(   32) = (   0.2500000   0.7500000   0.7500000), wk =   0.0312500
        k(   33) = (   0.5000000   0.0000000   0.0000000), wk =   0.0312500
        k(   34) = (   0.5000000   0.0000000   0.2500000), wk =   0.0312500
        k(   35) = (   0.5000000   0.0000000   0.5000000), wk =   0.0312500
        k(   36) = (   0.5000000   0.0000000   0.7500000), wk =   0.0312500
        k(   37) = (   0.5000000   0.2500000   0.0000000), wk =   0.0312500
        k(   38) = (   0.5000000   0.2500000   0.2500000), wk =   0.0312500
        k(   39) = (   0.5000000   0.2500000   0.5000000), wk =   0.0312500
        k(   40) = (   0.5000000   0.2500000   0.7500000), wk =   0.0312500
        k(   41) = (   0.5000000   0.5000000   0.0000000), wk =   0.0312500
        k(   42) = (   0.5000000   0.5000000   0.2500000), wk =   0.0312500
        k(   43) = (   0.5000000   0.5000000   0.5000000), wk =   0.0312500
        k(   44) = (   0.5000000   0.5000000   0.7500000), wk =   0.0312500
        k(   45) = (   0.5000000   0.7500000   0.0000000), wk =   0.0312500
        k(   46) = (   0.5000000   0.7500000   0.2500000), wk =   0.0312500
        k(   47) = (   0.5000000   0.7500000   0.5000000), wk =   0.0312500
        k(   48) = (   0.5000000   0.7500000   0.7500000), wk =   0.0312500
        k(   49) = (   0.7500000   0.0000000   0.0000000), wk =   0.0312500
        k(   50) = (   0.7500000   0.0000000   0.2500000), wk =   0.0312500
        k(   51) = (   0.7500000   0.0000000   0.5000000), wk =   0.0312500
        k(   52) = (   0.7500000   0.0000000   0.7500000), wk =   0.0312500
        k(   53) = (   0.7500000   0.2500000   0.0000000), wk =   0.0312500
        k(   54) = (   0.7500000   0.2500000   0.2500000), wk =   0.0312500
        k(   55) = (   0.7500000   0.2500000   0.5000000), wk =   0.0312500
        k(   56) = (   0.7500000   0.2500000   0.7500000), wk =   0.0312500
        k(   57) = (   0.7500000   0.5000000   0.0000000), wk =   0.0312500
        k(   58) = (   0.7500000   0.5000000   0.2500000), wk =   0.0312500
        k(   59) = (   0.7500000   0.5000000   0.5000000), wk =   0.0312500
        k(   60) = (   0.7500000   0.5000000   0.7500000), wk =   0.0312500
        k(   61) = (   0.7500000   0.7500000   0.0000000), wk =   0.0312500
        k(   62) = (   0.7500000   0.7500000   0.2500000), wk =   0.0312500
        k(   63) = (   0.7500000   0.7500000   0.5000000), wk =   0.0312500
        k(   64) = (   0.7500000   0.7500000   0.7500000), wk =   0.0312500

     Dense  grid:    20005 G-vectors     FFT dimensions: (  36,  36,  36)

     Estimated max dynamical RAM per process >      26.93 MB

     Estimated total dynamical RAM >     107.72 MB

     Initial potential from superposition of free atoms

     starting charge      63.5461, renormalised to      64.0000
     Starting wfcs are random

     total cpu time spent up to now is        0.9 secs

     Self-consistent Calculation

     iteration #  1     ecut=    25.00 Ry     beta= 0.50
     Davidson diagonalization with overlap
     ethr =  1.00E-02,  avg # of iterations =  8.3
     Davidson diagonalization with overlap
     ethr =  1.00E-02,  avg # of iterations =  1.8
     Davidson diagonalization with overlap
     ethr =  1.00E-02,  avg # of iterations =  1.0
 
     Expectation value of exp(iGx): (0.186869493055400,1.957201444019022E-002)
   1.00000000000000     
     Electronic Dipole per cell (Ry a.u.)  0.497012585741885     
     Ionic Dipole per cell (Ry a.u.)   194.510933368796     
 
     Expectation value of exp(iGx): (0.186923962761898,-7.815578797121313E-004)
   1.00000000000000     
     Electronic Dipole per cell (Ry a.u.) -1.991335465990211E-002
     Ionic Dipole per cell (Ry a.u.)   194.510933368795     
 
     Expectation value of exp(iGx): (0.187239635435206,-9.176178957065503E-004)
   1.00000000000000     
     Electronic Dipole per cell (Ry a.u.) -2.334056710394561E-002
     Ionic Dipole per cell (Ry a.u.)   194.510933368796     
Electronic Dipole on Cartesian axes
           1  0.497012585741885     
           2 -1.991335465990211E-002
           3 -2.334056710394561E-002
Ionic Dipole on Cartesian axes
           1   194.510933368796     
           2   194.510933368795     
           3   194.510933368796     

     total cpu time spent up to now is       48.2 secs

     total energy              =    -599.02818884 Ry
     estimated scf accuracy    <       1.36939399 Ry

     iteration #  2     ecut=    25.00 Ry     beta= 0.50
     Davidson diagonalization with overlap
     ethr =  2.14E-03,  avg # of iterations =  2.0
     Davidson diagonalization with overlap
     ethr =  2.14E-03,  avg # of iterations =  1.0
     Davidson diagonalization with overlap
     ethr =  2.14E-03,  avg # of iterations =  1.0
 
     Expectation value of exp(iGx): (0.159453810785651,2.332271371856274E-002)
   1.00000000000000     
     Electronic Dipole per cell (Ry a.u.)  0.691713480559582     
     Ionic Dipole per cell (Ry a.u.)   194.510933368796     
 
     Expectation value of exp(iGx): (0.161154300502406,-1.162783941458005E-004)
   1.00000000000000     
     Electronic Dipole per cell (Ry a.u.) -3.436432703219504E-003
     Ionic Dipole per cell (Ry a.u.)   194.510933368795     
 
     Expectation value of exp(iGx): (0.161162084334713,-1.008313940411185E-004)
   1.00000000000000     
     Electronic Dipole per cell (Ry a.u.) -2.979776097965018E-003
     Ionic Dipole per cell (Ry a.u.)   194.510933368796     
Electronic Dipole on Cartesian axes
           1  0.691713480559582     
           2 -3.436432703219504E-003
           3 -2.979776097965018E-003
Ionic Dipole on Cartesian axes
           1   194.510933368796     
           2   194.510933368795     
           3   194.510933368796     

     total cpu time spent up to now is       78.6 secs

     total energy              =    -599.07053665 Ry
     estimated scf accuracy    <       0.15447292 Ry

     iteration #  3     ecut=    25.00 Ry     beta= 0.50
     Davidson diagonalization with overlap
     ethr =  2.41E-04,  avg # of iterations =  2.0
     Davidson diagonalization with overlap
     ethr =  2.41E-04,  avg # of iterations =  1.0
     Davidson diagonalization with overlap
     ethr =  2.41E-04,  avg # of iterations =  1.0
 
     Expectation value of exp(iGx): (0.155946485566186,2.394246590973745E-002)
   1.00000000000000     
     Electronic Dipole per cell (Ry a.u.)  0.725547949022191     
     Ionic Dipole per cell (Ry a.u.)   194.510933368796     
 
     Expectation value of exp(iGx): (0.157824186357571,-3.362093341441027E-005)
   1.00000000000000     
     Electronic Dipole per cell (Ry a.u.) -1.014581627737241E-003
     Ionic Dipole per cell (Ry a.u.)   194.510933368795     
 
     Expectation value of exp(iGx): (0.157828098548608,-4.176005181421227E-005)
   1.00000000000000     
     Electronic Dipole per cell (Ry a.u.) -1.260165214499855E-003
     Ionic Dipole per cell (Ry a.u.)   194.510933368796     
Electronic Dipole on Cartesian axes
           1  0.725547949022191     
           2 -1.014581627737241E-003
           3 -1.260165214499855E-003
Ionic Dipole on Cartesian axes
           1   194.510933368796     
           2   194.510933368795     
           3   194.510933368796     

     total cpu time spent up to now is      107.6 secs

     total energy              =    -599.07442391 Ry
     estimated scf accuracy    <       0.01065819 Ry

     iteration #  4     ecut=    25.00 Ry     beta= 0.50
     Davidson diagonalization with overlap
     ethr =  1.67E-05,  avg # of iterations =  2.0
     Davidson diagonalization with overlap
     ethr =  1.67E-05,  avg # of iterations =  1.0
     Davidson diagonalization with overlap
     ethr =  1.67E-05,  avg # of iterations =  1.0
 
     Expectation value of exp(iGx): (0.156011362495897,2.432637175056326E-002)
   1.00000000000000     
     Electronic Dipole per cell (Ry a.u.)  0.736696734284018     
     Ionic Dipole per cell (Ry a.u.)   194.510933368796     
 
     Expectation value of exp(iGx): (0.157960522796227,3.146758583205461E-006)
   1.00000000000000     
     Electronic Dipole per cell (Ry a.u.)  9.487802938188394E-005
     Ionic Dipole per cell (Ry a.u.)   194.510933368795     
 
     Expectation value of exp(iGx): (0.157961698287080,-1.160524060207064E-005)
   1.00000000000000     
     Electronic Dipole per cell (Ry a.u.) -3.499074155330220E-004
     Ionic Dipole per cell (Ry a.u.)   194.510933368796     
Electronic Dipole on Cartesian axes
           1  0.736696734284018     
           2  9.487802938188394E-005
           3 -3.499074155330220E-004
Ionic Dipole on Cartesian axes
           1   194.510933368796     
           2   194.510933368795     
           3   194.510933368796     

     total cpu time spent up to now is      136.5 secs

     total energy              =    -599.07515299 Ry
     estimated scf accuracy    <       0.00015668 Ry

     iteration #  5     ecut=    25.00 Ry     beta= 0.50
     Davidson diagonalization with overlap
     ethr =  2.45E-07,  avg # of iterations =  2.2
     Davidson diagonalization with overlap
     ethr =  2.45E-07,  avg # of iterations =  1.0
     Davidson diagonalization with overlap
     ethr =  2.45E-07,  avg # of iterations =  1.0
 
     Expectation value of exp(iGx): (0.155925271274251,2.448966598526695E-002)
   1.00000000000000     
     Electronic Dipole per cell (Ry a.u.)  0.741965484754890     
     Ionic Dipole per cell (Ry a.u.)   194.510933368796     
 
     Expectation value of exp(iGx): (0.157904961990525,3.000492332037299E-006)
   1.00000000000000     
     Electronic Dipole per cell (Ry a.u.)  9.049978273137951E-005
     Ionic Dipole per cell (Ry a.u.)   194.510933368795     
 
     Expectation value of exp(iGx): (0.157905425029316,3.438728873505961E-007)
   1.00000000000000     
     Electronic Dipole per cell (Ry a.u.)  1.037174133289315E-005
     Ionic Dipole per cell (Ry a.u.)   194.510933368796     
Electronic Dipole on Cartesian axes
           1  0.741965484754890     
           2  9.049978273137951E-005
           3  1.037174133289315E-005
Ionic Dipole on Cartesian axes
           1   194.510933368796     
           2   194.510933368795     
           3   194.510933368796     

     total cpu time spent up to now is      166.3 secs

     total energy              =    -599.07516202 Ry
     estimated scf accuracy    <       0.00000624 Ry

     iteration #  6     ecut=    25.00 Ry     beta= 0.50
     Davidson diagonalization with overlap
     ethr =  9.74E-09,  avg # of iterations =  2.4
     Davidson diagonalization with overlap
     ethr =  9.74E-09,  avg # of iterations =  1.0
     Davidson diagonalization with overlap
     ethr =  9.74E-09,  avg # of iterations =  1.0
 
     Expectation value of exp(iGx): (0.155927085287419,2.451981416610884E-002)
   1.00000000000000     
     Electronic Dipole per cell (Ry a.u.)  0.742855650167542     
     Ionic Dipole per cell (Ry a.u.)   194.510933368796     
 
     Expectation value of exp(iGx): (0.157912391848736,8.605881748203602E-007)
   1.00000000000000     
     Electronic Dipole per cell (Ry a.u.)  2.595553322457657E-005
     Ionic Dipole per cell (Ry a.u.)   194.510933368795     
 
     Expectation value of exp(iGx): (0.157912442742596,4.519074302412451E-007)
   1.00000000000000     
     Electronic Dipole per cell (Ry a.u.)  1.362962550846673E-005
     Ionic Dipole per cell (Ry a.u.)   194.510933368796     
Electronic Dipole on Cartesian axes
           1  0.742855650167542     
           2  2.595553322457657E-005
           3  1.362962550846673E-005
Ionic Dipole on Cartesian axes
           1   194.510933368796     
           2   194.510933368795     
           3   194.510933368796     

     total cpu time spent up to now is      196.6 secs

     total energy              =    -599.07516265 Ry
     estimated scf accuracy    <       0.00000091 Ry

     iteration #  7     ecut=    25.00 Ry     beta= 0.50
     Davidson diagonalization with overlap
     ethr =  1.42E-09,  avg # of iterations =  2.0
     Davidson diagonalization with overlap
     ethr =  1.42E-09,  avg # of iterations =  1.0
     Davidson diagonalization with overlap
     ethr =  1.42E-09,  avg # of iterations =  1.0
 
     Expectation value of exp(iGx): (0.155947450837936,2.452027929860110E-002)
   1.00000000000000     
     Electronic Dipole per cell (Ry a.u.)  0.742774066878551     
     Ionic Dipole per cell (Ry a.u.)   194.510933368796     
 
     Expectation value of exp(iGx): (0.157932541590323,-4.202371564441133E-007)
   1.00000000000000     
     Electronic Dipole per cell (Ry a.u.) -1.267283024605059E-005
     Ionic Dipole per cell (Ry a.u.)   194.510933368795     
 
     Expectation value of exp(iGx): (0.157932585981230,-5.724683467371594E-007)
   1.00000000000000     
     Electronic Dipole per cell (Ry a.u.) -1.726356660525759E-005
     Ionic Dipole per cell (Ry a.u.)   194.510933368796     
Electronic Dipole on Cartesian axes
           1  0.742774066878551     
           2 -1.267283024605059E-005
           3 -1.726356660525759E-005
Ionic Dipole on Cartesian axes
           1   194.510933368796     
           2   194.510933368795     
           3   194.510933368796     

     total cpu time spent up to now is      227.4 secs

     total energy              =    -599.07516270 Ry
     estimated scf accuracy    <       0.00000002 Ry

     iteration #  8     ecut=    25.00 Ry     beta= 0.50
     Davidson diagonalization with overlap
     ethr =  2.99E-11,  avg # of iterations =  2.6
     Davidson diagonalization with overlap
     ethr =  2.99E-11,  avg # of iterations =  1.0
     Davidson diagonalization with overlap
     ethr =  2.99E-11,  avg # of iterations =  1.0
 
     Expectation value of exp(iGx): (0.155951044029586,2.452260941224284E-002)
   1.00000000000000     
     Electronic Dipole per cell (Ry a.u.)  0.742826672821097     
     Ionic Dipole per cell (Ry a.u.)   194.510933368796     
 
     Expectation value of exp(iGx): (0.157936493309365,-1.745326259987821E-007)
   1.00000000000000     
     Electronic Dipole per cell (Ry a.u.) -5.263140029172249E-006
     Ionic Dipole per cell (Ry a.u.)   194.510933368795     
 
     Expectation value of exp(iGx): (0.157936512248734,-1.663941772422906E-007)
   1.00000000000000     
     Electronic Dipole per cell (Ry a.u.) -5.017719436848013E-006
     Ionic Dipole per cell (Ry a.u.)   194.510933368796     
Electronic Dipole on Cartesian axes
           1  0.742826672821097     
           2 -5.263140029172249E-006
           3 -5.017719436848013E-006
Ionic Dipole on Cartesian axes
           1   194.510933368796     
           2   194.510933368795     
           3   194.510933368796     

     total cpu time spent up to now is      257.4 secs

     End of self-consistent calculation

          k = 0.0000 0.0000 0.0000 (  2517 PWs)   bands (ev):

  -100.2680-100.2680-100.2680 -99.9107 -60.4817 -60.4817 -60.4817 -60.2461
   -60.2421 -60.2420 -60.2419 -60.2419 -60.2379 -60.0022 -59.9981 -59.9939
    -5.6158  -3.4107  -3.4107  -3.4107   0.7452   0.7452   0.7453   4.4427
     4.4444   4.4444   4.4445   4.4446   4.4446   6.5514   6.5532   6.5548

          k = 0.0000 0.0000 0.2500 (  2501 PWs)   bands (ev):

  -100.2007-100.2007-100.1601 -99.8968 -60.3740 -60.2553 -60.2537 -60.2523
   -60.2497 -60.2465 -60.2454 -60.1435 -60.1433 -59.9822 -59.9813 -59.9627
    -5.3947  -3.9157  -3.3862  -3.3862   0.9026   0.9027   1.5344   3.8406
     3.8409   4.0439   4.0442   4.6749   4.6752   5.1321   6.0955   6.0958

          k = 0.0000 0.0000 0.5000 (  2496 PWs)   bands (ev):

  -100.2139-100.2139 -99.9762 -99.9762 -60.3015 -60.3015 -60.3014 -60.3014
   -60.2197 -60.2197 -60.0454 -60.0454 -60.0424 -60.0424 -60.0133 -60.0132
    -4.7700  -4.7700  -3.3626  -3.3626   1.1163   1.1163   3.1754   3.1754
     3.3327   3.3327   3.7683   3.7683   5.2609   5.2609   5.2613   5.2613

          k = 0.0000 0.0000 0.7500 (  2501 PWs)   bands (ev):

  -100.2007-100.2007-100.1601 -99.8968 -60.3740 -60.2553 -60.2537 -60.2523
   -60.2497 -60.2465 -60.2454 -60.1435 -60.1433 -59.9822 -59.9813 -59.9627
    -5.3947  -3.9157  -3.3862  -3.3862   0.9026   0.9027   1.5344   3.8406
     3.8409   4.0439   4.0442   4.6749   4.6752   5.1321   6.0955   6.0958

          k = 0.0000 0.2500 0.0000 (  2501 PWs)   bands (ev):

  -100.2007-100.2007-100.1601 -99.8968 -60.3740 -60.2553 -60.2537 -60.2523
   -60.2497 -60.2465 -60.2454 -60.1435 -60.1433 -59.9822 -59.9813 -59.9627
    -5.3947  -3.9157  -3.3862  -3.3862   0.9026   0.9027   1.5344   3.8406
     3.8409   4.0439   4.0442   4.6749   4.6752   5.1321   6.0955   6.0958

          k = 0.0000 0.2500 0.2500 (  2512 PWs)   bands (ev):

  -100.2550-100.2550-100.1179 -99.9712 -60.4212 -60.4212 -60.2894 -60.2894
   -60.2381 -60.1985 -60.1985 -60.1760 -60.0969 -60.0672 -60.0535 -60.0270
    -5.1819  -3.8240  -3.8239  -3.4412   1.0270   1.4442   1.4443   3.0935
     3.9856   3.9856   4.0276   4.5507   4.5507   4.8415   5.5319   6.4366

          k = 0.0000 0.2500 0.5000 (  2522 PWs)   bands (ev):

  -100.2643-100.2643-100.1070-100.1070 -60.3600 -60.3544 -60.3475 -60.3475
   -60.2254 -60.2197 -60.2065 -60.2064 -60.1869 -60.1788 -60.1385 -60.1304
    -4.5974  -4.5968  -3.6166  -3.6157   1.2399   1.2431   2.6239   2.6275
     3.1272   3.1277   4.6061   4.6067   4.7027   4.7050   5.6431   5.6455

          k = 0.0000 0.2500 0.7500 (  2512 PWs)   bands (ev):

  -100.2550-100.2550-100.1179 -99.9712 -60.4182 -60.4182 -60.2894 -60.2894
   -60.2381 -60.2016 -60.2015 -60.1841 -60.0886 -60.0672 -60.0616 -60.0188
    -5.1816  -3.8245  -3.8245  -3.4405   1.0255   1.4468   1.4468   3.0917
     3.9853   3.9853   4.0242   4.5488   4.5489   4.8433   5.5325   6.4386

          k = 0.0000 0.5000 0.0000 (  2496 PWs)   bands (ev):

  -100.2139-100.2139 -99.9762 -99.9762 -60.3015 -60.3015 -60.3014 -60.3014
   -60.2197 -60.2197 -60.0454 -60.0454 -60.0424 -60.0424 -60.0133 -60.0133
    -4.7700  -4.7700  -3.3626  -3.3626   1.1163   1.1163   3.1754   3.1754
     3.3327   3.3327   3.7683   3.7683   5.2609   5.2609   5.2613   5.2613

          k = 0.0000 0.5000 0.2500 (  2522 PWs)   bands (ev):

  -100.2643-100.2643-100.1070-100.1070 -60.3600 -60.3544 -60.3475 -60.3475
   -60.2254 -60.2197 -60.2065 -60.2064 -60.1869 -60.1788 -60.1385 -60.1304
    -4.5974  -4.5968  -3.6166  -3.6157   1.2399   1.2431   2.6239   2.6275
     3.1272   3.1277   4.6061   4.6067   4.7027   4.7050   5.6431   5.6455

          k = 0.0000 0.5000 0.5000 (  2496 PWs)   bands (ev):

  -100.1039-100.1039-100.1039-100.1039 -60.2730 -60.2730 -60.2730 -60.2730
   -60.1990 -60.1989 -60.1908 -60.1908 -60.0298 -60.0298 -60.0216 -60.0216
    -4.1448  -4.1448  -4.1439  -4.1438   1.7845   1.7845   1.7886   1.7886
     3.6388   3.6388   3.6392   3.6392   5.7491   5.7491   5.7511   5.7511

          k = 0.0000 0.5000 0.7500 (  2522 PWs)   bands (ev):

  -100.2643-100.2643-100.1070-100.1070 -60.3600 -60.3544 -60.3475 -60.3475
   -60.2254 -60.2197 -60.2065 -60.2064 -60.1869 -60.1788 -60.1385 -60.1304
    -4.5974  -4.5968  -3.6166  -3.6157   1.2399   1.2431   2.6239   2.6275
     3.1272   3.1277   4.6061   4.6067   4.7027   4.7050   5.6431   5.6455

          k = 0.0000 0.7500 0.0000 (  2501 PWs)   bands (ev):

  -100.2007-100.2007-100.1601 -99.8968 -60.3740 -60.2553 -60.2537 -60.2523
   -60.2497 -60.2465 -60.2454 -60.1435 -60.1433 -59.9822 -59.9813 -59.9627
    -5.3947  -3.9157  -3.3862  -3.3862   0.9026   0.9027   1.5344   3.8406
     3.8409   4.0439   4.0442   4.6749   4.6752   5.1321   6.0955   6.0958

          k = 0.0000 0.7500 0.2500 (  2512 PWs)   bands (ev):

  -100.2550-100.2550-100.1179 -99.9712 -60.4182 -60.4182 -60.2894 -60.2894
   -60.2381 -60.2016 -60.2015 -60.1841 -60.0886 -60.0672 -60.0616 -60.0188
    -5.1816  -3.8245  -3.8245  -3.4405   1.0255   1.4468   1.4468   3.0917
     3.9853   3.9853   4.0242   4.5488   4.5489   4.8433   5.5325   6.4386

          k = 0.0000 0.7500 0.5000 (  2522 PWs)   bands (ev):

  -100.2643-100.2643-100.1070-100.1070 -60.3600 -60.3544 -60.3475 -60.3475
   -60.2254 -60.2197 -60.2065 -60.2064 -60.1869 -60.1788 -60.1385 -60.1304
    -4.5974  -4.5968  -3.6166  -3.6157   1.2399   1.2431   2.6239   2.6275
     3.1272   3.1277   4.6061   4.6067   4.7027   4.7050   5.6431   5.6455

          k = 0.0000 0.7500 0.7500 (  2512 PWs)   bands (ev):

  -100.2550-100.2550-100.1179 -99.9712 -60.4212 -60.4212 -60.2894 -60.2894
   -60.2381 -60.1985 -60.1985 -60.1760 -60.0969 -60.0672 -60.0535 -60.0270
    -5.1819  -3.8240  -3.8239  -3.4412   1.0270   1.4442   1.4443   3.0935
     3.9856   3.9856   4.0276   4.5507   4.5507   4.8415   5.5319   6.4366

          k = 0.2500 0.0000 0.0000 (  2501 PWs)   bands (ev):

  -100.2007-100.2007-100.1601 -99.8968 -60.3740 -60.2553 -60.2553 -60.2496
   -60.2495 -60.2466 -60.2466 -60.1475 -60.1393 -59.9854 -59.9771 -59.9637
    -5.3947  -3.9157  -3.3862  -3.3862   0.9026   0.9026   1.5345   3.8408
     3.8408   4.0442   4.0442   4.6733   4.6751   5.1324   6.0942   6.0960

          k = 0.2500 0.0000 0.2500 (  2512 PWs)   bands (ev):

  -100.2550-100.2550-100.1179 -99.9712 -60.4198 -60.4197 -60.2895 -60.2892
   -60.2382 -60.2002 -60.1999 -60.1799 -60.0927 -60.0681 -60.0568 -60.0227
    -5.1818  -3.8242  -3.8242  -3.4409   1.0262   1.4455   1.4456   3.0926
     3.9852   3.9855   4.0258   4.5495   4.5497   4.8432   5.5320   6.4382

          k = 0.2500 0.0000 0.5000 (  2522 PWs)   bands (ev):

  -100.2643-100.2643-100.1070-100.1070 -60.3574 -60.3574 -60.3473 -60.3473
   -60.2226 -60.2225 -60.2069 -60.2068 -60.1825 -60.1825 -60.1344 -60.1344
    -4.5971  -4.5971  -3.6162  -3.6162   1.2415   1.2415   2.6257   2.6257
     3.1274   3.1274   4.6065   4.6065   4.7041   4.7041   5.6444   5.6444

          k = 0.2500 0.0000 0.7500 (  2512 PWs)   bands (ev):

  -100.2550-100.2550-100.1179 -99.9712 -60.4198 -60.4197 -60.2895 -60.2892
   -60.2382 -60.2002 -60.1999 -60.1799 -60.0927 -60.0681 -60.0568 -60.0227
    -5.1818  -3.8242  -3.8242  -3.4409   1.0262   1.4455   1.4456   3.0926
     3.9852   3.9855   4.0258   4.5495   4.5497   4.8432   5.5320   6.4382

          k = 0.2500 0.2500 0.0000 (  2512 PWs)   bands (ev):

  -100.2550-100.2550-100.1179 -99.9712 -60.4198 -60.4197 -60.2895 -60.2892
   -60.2382 -60.2002 -60.1999 -60.1799 -60.0927 -60.0681 -60.0568 -60.0227
    -5.1818  -3.8242  -3.8242  -3.4409   1.0262   1.4455   1.4456   3.0926
     3.9852   3.9855   4.0258   4.5495   4.5497   4.8432   5.5320   6.4382

          k = 0.2500 0.2500 0.2500 (  2494 PWs)   bands (ev):

  -100.1202-100.1202-100.1202-100.0019 -60.2571 -60.2571 -60.2557 -60.2125
   -60.1911 -60.1910 -60.1884 -60.0822 -60.0781 -60.0781 -60.0143 -60.0089
    -4.9852  -3.7838  -3.7832  -3.7832   1.2218   1.2219   1.2240   3.0436
     3.7873   3.7875   3.7875   5.0255   5.0271   5.0271   6.1426   6.1451

          k = 0.2500 0.2500 0.5000 (  2516 PWs)   bands (ev):

  -100.2798-100.2797-100.0569-100.0568 -60.4120 -60.4072 -60.3428 -60.3428
   -60.2701 -60.2661 -60.2268 -60.2220 -60.1147 -60.1107 -60.0087 -60.0087
    -4.4519  -4.4513  -3.7492  -3.7483   0.9846   0.9874   1.9076   1.9103
     3.7981   3.7982   5.0696   5.0712   5.2529   5.2549   5.5377   5.5378

          k = 0.2500 0.2500 0.7500 (  2494 PWs)   bands (ev):

  -100.1202-100.1202-100.1202-100.0019 -60.2561 -60.2548 -60.2547 -60.2179
   -60.1962 -60.1935 -60.1934 -60.0781 -60.0781 -60.0740 -60.0116 -60.0061
    -4.9849  -3.7839  -3.7838  -3.7832   1.2224   1.2245   1.2245   3.0415
     3.7854   3.7854   3.7857   5.0271   5.0271   5.0273   6.1443   6.1445

          k = 0.2500 0.5000 0.0000 (  2522 PWs)   bands (ev):

  -100.2643-100.2643-100.1070-100.1070 -60.3574 -60.3574 -60.3473 -60.3473
   -60.2226 -60.2225 -60.2069 -60.2068 -60.1825 -60.1825 -60.1344 -60.1344
    -4.5971  -4.5971  -3.6162  -3.6162   1.2415   1.2415   2.6257   2.6257
     3.1274   3.1274   4.6065   4.6065   4.7041   4.7041   5.6444   5.6444

          k = 0.2500 0.5000 0.2500 (  2516 PWs)   bands (ev):

  -100.2798-100.2797-100.0569-100.0568 -60.4120 -60.4072 -60.3428 -60.3428
   -60.2701 -60.2661 -60.2268 -60.2220 -60.1147 -60.1107 -60.0087 -60.0087
    -4.4519  -4.4513  -3.7492  -3.7483   0.9846   0.9874   1.9076   1.9103
     3.7981   3.7982   5.0696   5.0712   5.2529   5.2549   5.5377   5.5378

          k = 0.2500 0.5000 0.5000 (  2484 PWs)   bands (ev):

  -100.0642-100.0642-100.0642-100.0641 -60.2494 -60.2493 -60.2432 -60.2432
   -60.1118 -60.1118 -60.1098 -60.1098 -60.0350 -60.0349 -60.0267 -60.0267
    -4.0954  -4.0954  -4.0944  -4.0944   1.1307   1.1307   1.1339   1.1339
     4.7271   4.7271   4.7277   4.7277   5.7906   5.7906   5.7926   5.7926

          k = 0.2500 0.5000 0.7500 (  2516 PWs)   bands (ev):

  -100.2798-100.2797-100.0569-100.0568 -60.4120 -60.4072 -60.3428 -60.3428
   -60.2701 -60.2661 -60.2268 -60.2220 -60.1147 -60.1107 -60.0087 -60.0087
    -4.4519  -4.4513  -3.7492  -3.7483   0.9846   0.9874   1.9076   1.9103
     3.7981   3.7982   5.0696   5.0712   5.2529   5.2549   5.5377   5.5378

          k = 0.2500 0.7500 0.0000 (  2512 PWs)   bands (ev):

  -100.2550-100.2550-100.1179 -99.9712 -60.4198 -60.4197 -60.2895 -60.2892
   -60.2382 -60.2002 -60.1999 -60.1799 -60.0927 -60.0681 -60.0568 -60.0227
    -5.1818  -3.8242  -3.8242  -3.4409   1.0262   1.4455   1.4456   3.0926
     3.9852   3.9855   4.0258   4.5495   4.5497   4.8432   5.5320   6.4382

          k = 0.2500 0.7500 0.2500 (  2494 PWs)   bands (ev):

  -100.1202-100.1202-100.1202-100.0019 -60.2561 -60.2548 -60.2547 -60.2179
   -60.1962 -60.1935 -60.1934 -60.0781 -60.0781 -60.0740 -60.0116 -60.0061
    -4.9849  -3.7839  -3.7838  -3.7832   1.2224   1.2245   1.2245   3.0415
     3.7854   3.7854   3.7857   5.0271   5.0271   5.0273   6.1443   6.1445

          k = 0.2500 0.7500 0.5000 (  2516 PWs)   bands (ev):

  -100.2798-100.2797-100.0569-100.0568 -60.4120 -60.4072 -60.3428 -60.3428
   -60.2701 -60.2661 -60.2268 -60.2220 -60.1147 -60.1107 -60.0087 -60.0087
    -4.4519  -4.4513  -3.7492  -3.7483   0.9846   0.9874   1.9076   1.9103
     3.7981   3.7982   5.0696   5.0712   5.2529   5.2549   5.5377   5.5378

          k = 0.2500 0.7500 0.7500 (  2494 PWs)   bands (ev):

  -100.1202-100.1202-100.1202-100.0019 -60.2571 -60.2571 -60.2557 -60.2125
   -60.1911 -60.1910 -60.1884 -60.0822 -60.0781 -60.0781 -60.0143 -60.0089
    -4.9852  -3.7838  -3.7832  -3.7832   1.2218   1.2219   1.2240   3.0436
     3.7873   3.7875   3.7875   5.0255   5.0271   5.0271   6.1426   6.1451

          k = 0.5000 0.0000 0.0000 (  2496 PWs)   bands (ev):

  -100.2139-100.2139 -99.9762 -99.9762 -60.3054 -60.3054 -60.2972 -60.2972
   -60.2200 -60.2200 -60.0479 -60.0479 -60.0392 -60.0392 -60.0139 -60.0139
    -4.7700  -4.7699  -3.3626  -3.3626   1.1163   1.1163   3.1755   3.1755
     3.3327   3.3327   3.7683   3.7683   5.2596   5.2596   5.2614   5.2615

          k = 0.5000 0.0000 0.2500 (  2522 PWs)   bands (ev):

  -100.2643-100.2643-100.1070-100.1070 -60.3584 -60.3584 -60.3462 -60.3462
   -60.2227 -60.2227 -60.2068 -60.2068 -60.1825 -60.1825 -60.1344 -60.1344
    -4.5971  -4.5971  -3.6162  -3.6162   1.2415   1.2415   2.6257   2.6257
     3.1274   3.1274   4.6063   4.6063   4.7041   4.7041   5.6442   5.6442

          k = 0.5000 0.0000 0.5000 (  2496 PWs)   bands (ev):

  -100.1039-100.1039-100.1039-100.1039 -60.2731 -60.2731 -60.2731 -60.2730
   -60.1948 -60.1948 -60.1948 -60.1948 -60.0257 -60.0257 -60.0257 -60.0257
    -4.1444  -4.1443  -4.1443  -4.1443   1.7866   1.7866   1.7866   1.7866
     3.6389   3.6389   3.6389   3.6390   5.7508   5.7508   5.7508   5.7508

          k = 0.5000 0.0000 0.7500 (  2522 PWs)   bands (ev):

  -100.2643-100.2643-100.1070-100.1070 -60.3584 -60.3584 -60.3462 -60.3462
   -60.2227 -60.2227 -60.2068 -60.2068 -60.1825 -60.1825 -60.1344 -60.1344
    -4.5971  -4.5971  -3.6162  -3.6162   1.2415   1.2415   2.6257   2.6257
     3.1274   3.1274   4.6063   4.6063   4.7041   4.7041   5.6442   5.6442

          k = 0.5000 0.2500 0.0000 (  2522 PWs)   bands (ev):

  -100.2643-100.2643-100.1070-100.1070 -60.3584 -60.3584 -60.3462 -60.3462
   -60.2227 -60.2227 -60.2068 -60.2068 -60.1825 -60.1825 -60.1344 -60.1344
    -4.5971  -4.5971  -3.6162  -3.6162   1.2415   1.2415   2.6257   2.6257
     3.1274   3.1274   4.6063   4.6063   4.7041   4.7041   5.6442   5.6442

          k = 0.5000 0.2500 0.2500 (  2516 PWs)   bands (ev):

  -100.2798-100.2797-100.0569-100.0568 -60.4127 -60.4127 -60.3387 -60.3386
   -60.2646 -60.2645 -60.2254 -60.2254 -60.1122 -60.1122 -60.0129 -60.0128
    -4.4518  -4.4518  -3.7484  -3.7484   0.9846   0.9846   1.9098   1.9098
     3.7996   3.7997   5.0700   5.0700   5.2549   5.2549   5.5361   5.5361

          k = 0.5000 0.2500 0.5000 (  2484 PWs)   bands (ev):

  -100.0642-100.0642-100.0642-100.0641 -60.2488 -60.2488 -60.2438 -60.2438
   -60.1134 -60.1134 -60.1084 -60.1084 -60.0308 -60.0308 -60.0308 -60.0308
    -4.0953  -4.0953  -4.0946  -4.0945   1.1310   1.1311   1.1336   1.1336
     4.7264   4.7264   4.7279   4.7279   5.7923   5.7923   5.7924   5.7924

          k = 0.5000 0.2500 0.7500 (  2516 PWs)   bands (ev):

  -100.2798-100.2797-100.0569-100.0568 -60.4064 -60.4064 -60.3468 -60.3468
   -60.2716 -60.2716 -60.2236 -60.2236 -60.1133 -60.1132 -60.0046 -60.0046
    -4.4514  -4.4514  -3.7491  -3.7490   0.9874   0.9874   1.9081   1.9081
     3.7966   3.7966   5.0712   5.0712   5.2535   5.2536   5.5380   5.5380

          k = 0.5000 0.5000 0.0000 (  2496 PWs)   bands (ev):

  -100.1039-100.1039-100.1039-100.1039 -60.2731 -60.2731 -60.2731 -60.2730
   -60.1948 -60.1948 -60.1948 -60.1948 -60.0257 -60.0257 -60.0257 -60.0257
    -4.1444  -4.1443  -4.1443  -4.1443   1.7866   1.7866   1.7866   1.7866
     3.6389   3.6389   3.6389   3.6390   5.7508   5.7508   5.7508   5.7508

          k = 0.5000 0.5000 0.2500 (  2484 PWs)   bands (ev):

  -100.0642-100.0642-100.0642-100.0641 -60.2488 -60.2488 -60.2438 -60.2438
   -60.1134 -60.1134 -60.1084 -60.1084 -60.0308 -60.0308 -60.0308 -60.0308
    -4.0953  -4.0953  -4.0946  -4.0945   1.1310   1.1311   1.1336   1.1336
     4.7264   4.7264   4.7279   4.7279   5.7923   5.7923   5.7924   5.7924

          k = 0.5000 0.5000 0.5000 (  2512 PWs)   bands (ev):

  -100.1643-100.1642-100.1642-100.1642 -60.4913 -60.4913 -60.4860 -60.4860
   -60.1048 -60.1048 -60.1021 -60.1020 -60.0994 -60.0994 -60.0966 -60.0965
    -4.0485  -4.0485  -4.0474  -4.0474   0.6924   0.6924   0.6954   0.6954
     5.8203   5.8203   5.8223   5.8223   5.8223   5.8224   5.8232   5.8232

          k = 0.5000 0.5000 0.7500 (  2484 PWs)   bands (ev):

  -100.0642-100.0642-100.0642-100.0641 -60.2488 -60.2488 -60.2438 -60.2438
   -60.1134 -60.1134 -60.1084 -60.1084 -60.0308 -60.0308 -60.0308 -60.0308
    -4.0953  -4.0953  -4.0946  -4.0945   1.1310   1.1311   1.1336   1.1336
     4.7264   4.7264   4.7279   4.7279   5.7923   5.7923   5.7924   5.7924

          k = 0.5000 0.7500 0.0000 (  2522 PWs)   bands (ev):

  -100.2643-100.2643-100.1070-100.1070 -60.3584 -60.3584 -60.3462 -60.3462
   -60.2227 -60.2227 -60.2068 -60.2068 -60.1825 -60.1825 -60.1344 -60.1344
    -4.5971  -4.5971  -3.6162  -3.6162   1.2415   1.2415   2.6257   2.6257
     3.1274   3.1274   4.6063   4.6063   4.7041   4.7041   5.6442   5.6442

          k = 0.5000 0.7500 0.2500 (  2516 PWs)   bands (ev):

  -100.2798-100.2797-100.0569-100.0568 -60.4064 -60.4064 -60.3468 -60.3468
   -60.2716 -60.2716 -60.2236 -60.2236 -60.1133 -60.1132 -60.0046 -60.0046
    -4.4514  -4.4514  -3.7491  -3.7490   0.9874   0.9874   1.9081   1.9081
     3.7966   3.7966   5.0712   5.0712   5.2535   5.2536   5.5380   5.5380

          k = 0.5000 0.7500 0.5000 (  2484 PWs)   bands (ev):

  -100.0642-100.0642-100.0642-100.0641 -60.2488 -60.2488 -60.2438 -60.2438
   -60.1134 -60.1134 -60.1084 -60.1084 -60.0308 -60.0308 -60.0308 -60.0308
    -4.0953  -4.0953  -4.0946  -4.0945   1.1310   1.1311   1.1336   1.1336
     4.7264   4.7264   4.7279   4.7279   5.7923   5.7923   5.7924   5.7924

          k = 0.5000 0.7500 0.7500 (  2516 PWs)   bands (ev):

  -100.2798-100.2797-100.0569-100.0568 -60.4127 -60.4127 -60.3387 -60.3386
   -60.2646 -60.2645 -60.2254 -60.2254 -60.1122 -60.1122 -60.0129 -60.0128
    -4.4518  -4.4518  -3.7484  -3.7484   0.9846   0.9846   1.9098   1.9098
     3.7996   3.7997   5.0700   5.0700   5.2549   5.2549   5.5361   5.5361

          k = 0.7500 0.0000 0.0000 (  2501 PWs)   bands (ev):

  -100.2007-100.2007-100.1601 -99.8968 -60.3740 -60.2553 -60.2553 -60.2496
   -60.2495 -60.2466 -60.2466 -60.1475 -60.1393 -59.9854 -59.9771 -59.9637
    -5.3947  -3.9157  -3.3862  -3.3862   0.9026   0.9026   1.5345   3.8408
     3.8408   4.0442   4.0442   4.6733   4.6751   5.1324   6.0942   6.0960

          k = 0.7500 0.0000 0.2500 (  2512 PWs)   bands (ev):

  -100.2550-100.2550-100.1179 -99.9712 -60.4198 -60.4197 -60.2895 -60.2892
   -60.2382 -60.2002 -60.1999 -60.1799 -60.0927 -60.0681 -60.0568 -60.0227
    -5.1818  -3.8242  -3.8242  -3.4409   1.0262   1.4455   1.4456   3.0926
     3.9852   3.9855   4.0258   4.5495   4.5497   4.8432   5.5320   6.4382

          k = 0.7500 0.0000 0.5000 (  2522 PWs)   bands (ev):

  -100.2643-100.2643-100.1070-100.1070 -60.3574 -60.3574 -60.3473 -60.3473
   -60.2226 -60.2225 -60.2069 -60.2068 -60.1825 -60.1825 -60.1344 -60.1344
    -4.5971  -4.5971  -3.6162  -3.6162   1.2415   1.2415   2.6257   2.6257
     3.1274   3.1274   4.6065   4.6065   4.7041   4.7041   5.6444   5.6444

          k = 0.7500 0.0000 0.7500 (  2512 PWs)   bands (ev):

  -100.2550-100.2550-100.1179 -99.9712 -60.4198 -60.4197 -60.2895 -60.2892
   -60.2382 -60.2002 -60.1999 -60.1799 -60.0927 -60.0681 -60.0568 -60.0227
    -5.1818  -3.8242  -3.8242  -3.4409   1.0262   1.4455   1.4456   3.0926
     3.9852   3.9855   4.0258   4.5495   4.5497   4.8432   5.5320   6.4382

          k = 0.7500 0.2500 0.0000 (  2512 PWs)   bands (ev):

  -100.2550-100.2550-100.1179 -99.9712 -60.4198 -60.4197 -60.2895 -60.2892
   -60.2382 -60.2002 -60.1999 -60.1799 -60.0927 -60.0681 -60.0568 -60.0227
    -5.1818  -3.8242  -3.8242  -3.4409   1.0262   1.4455   1.4456   3.0926
     3.9852   3.9855   4.0258   4.5495   4.5497   4.8432   5.5320   6.4382

          k = 0.7500 0.2500 0.2500 (  2494 PWs)   bands (ev):

  -100.1202-100.1202-100.1202-100.0019 -60.2571 -60.2571 -60.2557 -60.2125
   -60.1911 -60.1910 -60.1884 -60.0822 -60.0781 -60.0781 -60.0143 -60.0089
    -4.9852  -3.7838  -3.7832  -3.7832   1.2218   1.2219   1.2240   3.0436
     3.7873   3.7875   3.7875   5.0255   5.0271   5.0271   6.1426   6.1451

          k = 0.7500 0.2500 0.5000 (  2516 PWs)   bands (ev):

  -100.2798-100.2797-100.0569-100.0568 -60.4120 -60.4072 -60.3428 -60.3428
   -60.2701 -60.2661 -60.2268 -60.2220 -60.1147 -60.1107 -60.0087 -60.0087
    -4.4519  -4.4513  -3.7492  -3.7483   0.9846   0.9874   1.9076   1.9103
     3.7981   3.7982   5.0696   5.0712   5.2529   5.2549   5.5377   5.5378

          k = 0.7500 0.2500 0.7500 (  2494 PWs)   bands (ev):

  -100.1202-100.1202-100.1202-100.0019 -60.2561 -60.2548 -60.2547 -60.2179
   -60.1962 -60.1935 -60.1934 -60.0781 -60.0781 -60.0740 -60.0116 -60.0061
    -4.9849  -3.7839  -3.7838  -3.7832   1.2224   1.2245   1.2245   3.0415
     3.7854   3.7854   3.7857   5.0271   5.0271   5.0273   6.1443   6.1445

          k = 0.7500 0.5000 0.0000 (  2522 PWs)   bands (ev):

  -100.2643-100.2643-100.1070-100.1070 -60.3574 -60.3574 -60.3473 -60.3473
   -60.2226 -60.2225 -60.2069 -60.2068 -60.1825 -60.1825 -60.1344 -60.1344
    -4.5971  -4.5971  -3.6162  -3.6162   1.2415   1.2415   2.6257   2.6257
     3.1274   3.1274   4.6065   4.6065   4.7041   4.7041   5.6444   5.6444

          k = 0.7500 0.5000 0.2500 (  2516 PWs)   bands (ev):

  -100.2798-100.2797-100.0569-100.0568 -60.4120 -60.4072 -60.3428 -60.3428
   -60.2701 -60.2661 -60.2268 -60.2220 -60.1147 -60.1107 -60.0087 -60.0087
    -4.4519  -4.4513  -3.7492  -3.7483   0.9846   0.9874   1.9076   1.9103
     3.7981   3.7982   5.0696   5.0712   5.2529   5.2549   5.5377   5.5378

          k = 0.7500 0.5000 0.5000 (  2484 PWs)   bands (ev):

  -100.0642-100.0642-100.0642-100.0641 -60.2494 -60.2493 -60.2432 -60.2432
   -60.1118 -60.1118 -60.1098 -60.1098 -60.0350 -60.0349 -60.0267 -60.0267
    -4.0954  -4.0954  -4.0944  -4.0944   1.1307   1.1307   1.1339   1.1339
     4.7271   4.7271   4.7277   4.7277   5.7906   5.7906   5.7926   5.7926

          k = 0.7500 0.5000 0.7500 (  2516 PWs)   bands (ev):

  -100.2798-100.2797-100.0569-100.0568 -60.4120 -60.4072 -60.3428 -60.3428
   -60.2701 -60.2661 -60.2268 -60.2220 -60.1147 -60.1107 -60.0087 -60.0087
    -4.4519  -4.4513  -3.7492  -3.7483   0.9846   0.9874   1.9076   1.9103
     3.7981   3.7982   5.0696   5.0712   5.2529   5.2549   5.5377   5.5378

          k = 0.7500 0.7500 0.0000 (  2512 PWs)   bands (ev):

  -100.2550-100.2550-100.1179 -99.9712 -60.4198 -60.4197 -60.2895 -60.2892
   -60.2382 -60.2002 -60.1999 -60.1799 -60.0927 -60.0681 -60.0568 -60.0227
    -5.1818  -3.8242  -3.8242  -3.4409   1.0262   1.4455   1.4456   3.0926
     3.9852   3.9855   4.0258   4.5495   4.5497   4.8432   5.5320   6.4382

          k = 0.7500 0.7500 0.2500 (  2494 PWs)   bands (ev):

  -100.1202-100.1202-100.1202-100.0019 -60.2561 -60.2548 -60.2547 -60.2179
   -60.1962 -60.1935 -60.1934 -60.0781 -60.0781 -60.0740 -60.0116 -60.0061
    -4.9849  -3.7839  -3.7838  -3.7832   1.2224   1.2245   1.2245   3.0415
     3.7854   3.7854   3.7857   5.0271   5.0271   5.0273   6.1443   6.1445

          k = 0.7500 0.7500 0.5000 (  2516 PWs)   bands (ev):

  -100.2798-100.2797-100.0569-100.0568 -60.4120 -60.4072 -60.3428 -60.3428
   -60.2701 -60.2661 -60.2268 -60.2220 -60.1147 -60.1107 -60.0087 -60.0087
    -4.4519  -4.4513  -3.7492  -3.7483   0.9846   0.9874   1.9076   1.9103
     3.7981   3.7982   5.0696   5.0712   5.2529   5.2549   5.5377   5.5378

          k = 0.7500 0.7500 0.7500 (  2494 PWs)   bands (ev):

  -100.1202-100.1202-100.1202-100.0019 -60.2571 -60.2571 -60.2557 -60.2125
   -60.1911 -60.1910 -60.1884 -60.0822 -60.0781 -60.0781 -60.0143 -60.0089
    -4.9852  -3.7838  -3.7832  -3.7832   1.2218   1.2219   1.2240   3.0436
     3.7873   3.7875   3.7875   5.0255   5.0271   5.0271   6.1426   6.1451

     highest occupied level (ev):     6.5548

!    total energy              =    -599.07516271 Ry
     estimated scf accuracy    <          3.0E-09 Ry

     The total energy is the sum of the following terms:
     one-electron contribution =    -412.42787231 Ry
     hartree contribution      =     173.81964769 Ry
     xc contribution           =     -73.84339716 Ry
     ewald contribution        =    -286.42828717 Ry

     convergence has been achieved in   8 iterations

     Forces acting on atoms (cartesian axes, Ry/au):

     atom    1 type  1   force =     0.00330731    0.00000051    0.00000056
     atom    2 type  1   force =     0.00330611   -0.00000063    0.00000042
     atom    3 type  1   force =     0.00330605    0.00000054   -0.00000049
     atom    4 type  1   force =     0.00330718   -0.00000053   -0.00000054
     atom    5 type  2   force =    -0.00330754   -0.00000032    0.00000037
     atom    6 type  2   force =    -0.00330587    0.00000033    0.00000035
     atom    7 type  2   force =    -0.00330573   -0.00000015   -0.00000032
     atom    8 type  2   force =    -0.00330751    0.00000025   -0.00000034
     The non-local contrib.  to forces
     atom    1 type  1   force =    -0.01608285   -0.00000178   -0.00000173
     atom    2 type  1   force =    -0.01607822    0.00000223   -0.00000236
     atom    3 type  1   force =    -0.01607840   -0.00000232    0.00000202
     atom    4 type  1   force =    -0.01608279    0.00000127    0.00000158
     atom    5 type  2   force =    -0.01163257   -0.00000020   -0.00000079
     atom    6 type  2   force =    -0.01163749   -0.00000101   -0.00000138
     atom    7 type  2   force =    -0.01163797   -0.00000048    0.00000017
     atom    8 type  2   force =    -0.01163226   -0.00000069    0.00000031
     The ionic contribution  to forces
     atom    1 type  1   force =     0.00000000    0.00000000   -0.00000000
     atom    2 type  1   force =     0.00000000   -0.00000000   -0.00000000
     atom    3 type  1   force =     0.00000000   -0.00000000   -0.00000000
     atom    4 type  1   force =    -0.00000000   -0.00000000   -0.00000000
     atom    5 type  2   force =     0.00000000    0.00000000   -0.00000000
     atom    6 type  2   force =     0.00000000    0.00000000   -0.00000000
     atom    7 type  2   force =     0.00000000    0.00000000    0.00000000
     atom    8 type  2   force =     0.00000000    0.00000000    0.00000000
     The local contribution  to forces
     atom    1 type  1   force =     0.00383191   -0.00000422   -0.00000462
     atom    2 type  1   force =     0.00384497    0.00000697   -0.00000636
     atom    3 type  1   force =     0.00384368   -0.00000734    0.00000432
     atom    4 type  1   force =     0.00383076    0.00000396    0.00000506
     atom    5 type  2   force =     0.00125323   -0.00000219    0.00000487
     atom    6 type  2   force =     0.00127939    0.00000392    0.00000583
     atom    7 type  2   force =     0.00128055   -0.00000092   -0.00000359
     atom    8 type  2   force =     0.00125358    0.00000358   -0.00000383
     The core correction contribution to forces
     atom    1 type  1   force =     0.00000000    0.00000000    0.00000000
     atom    2 type  1   force =     0.00000000    0.00000000    0.00000000
     atom    3 type  1   force =     0.00000000    0.00000000    0.00000000
     atom    4 type  1   force =     0.00000000    0.00000000    0.00000000
     atom    5 type  2   force =     0.00000000    0.00000000    0.00000000
     atom    6 type  2   force =     0.00000000    0.00000000    0.00000000
     atom    7 type  2   force =     0.00000000    0.00000000    0.00000000
     atom    8 type  2   force =     0.00000000    0.00000000    0.00000000
     The Hubbard contrib.    to forces
     atom    1 type  1   force =     0.00000000    0.00000000    0.00000000
     atom    2 type  1   force =     0.00000000    0.00000000    0.00000000
     atom    3 type  1   force =     0.00000000    0.00000000    0.00000000
     atom    4 type  1   force =     0.00000000    0.00000000    0.00000000
     atom    5 type  2   force =     0.00000000    0.00000000    0.00000000
     atom    6 type  2   force =     0.00000000    0.00000000    0.00000000
     atom    7 type  2   force =     0.00000000    0.00000000    0.00000000
     atom    8 type  2   force =     0.00000000    0.00000000    0.00000000
     The SCF correction term to forces
     atom    1 type  1   force =     0.00000953    0.00000653    0.00000694
     atom    2 type  1   force =    -0.00000936   -0.00000980    0.00000918
     atom    3 type  1   force =    -0.00000794    0.00001023   -0.00000680
     atom    4 type  1   force =     0.00001050   -0.00000574   -0.00000715
     atom    5 type  2   force =     0.00000837    0.00000208   -0.00000368
     atom    6 type  2   force =    -0.00001120   -0.00000255   -0.00000408
     atom    7 type  2   force =    -0.00001175    0.00000127    0.00000314
     atom    8 type  2   force =     0.00000774   -0.00000262    0.00000321

     Total force =     0.009353     Total SCF correction =     0.000036

     BFGS Geometry Optimization
     Energy error            =      0.0E+00 Ry
     Gradient error          =      3.3E-03 Ry/Bohr

     number of scf cycles    =   1
     number of bfgs steps    =   0

     energy             new  =    -599.0751627146 Ry

     new trust radius        =       0.0033075354 bohr
     new conv_thr            =       0.0000000100 Ry


ATOMIC_POSITIONS (alat)
Al           -0.1246874000       -0.1249999519       -0.1249999471
Al            0.3753124865        0.3749999406       -0.1249999602
Al            0.3753124811       -0.1249999486        0.3749999539
Al           -0.1246874119        0.3749999502        0.3749999485
As            0.1246873785        0.1249999695        0.1250000346
As            0.6246875357        0.6250000314        0.1250000326
As            0.6246875489        0.1249999854        0.6249999702
As            0.1246873812        0.6250000234        0.6249999675



     Writing config-only to output data dir ../tmp/alas.save/
     NEW-OLD atomic charge density approx. for the potential

     total cpu time spent up to now is      258.4 secs

     Self-consistent Calculation

     iteration #  1     ecut=    25.00 Ry     beta= 0.50
     Davidson diagonalization with overlap
     ethr =  1.00E-06,  avg # of iterations =  3.0
     Davidson diagonalization with overlap
     ethr =  1.00E-06,  avg # of iterations =  1.1
     Davidson diagonalization with overlap
     ethr =  1.00E-06,  avg # of iterations =  1.0

     Threshold (ethr) on eigenvalues was too large:
     Diagonalizing with lowered threshold

     Davidson diagonalization with overlap
     ethr =  4.99E-08,  avg # of iterations =  1.0
     Davidson diagonalization with overlap
     ethr =  4.99E-08,  avg # of iterations =  1.0
     Davidson diagonalization with overlap
     ethr =  4.99E-08,  avg # of iterations =  1.0
 
     Expectation value of exp(iGx): (0.156059870677001,2.386468180567154E-002)
   1.00000000000000     
     Electronic Dipole per cell (Ry a.u.)  0.722709493644459     
     Ionic Dipole per cell (Ry a.u.)   194.623165194023     
 
     Expectation value of exp(iGx): (0.157941230028676,1.859400813992128E-007)
   1.00000000000000     
     Electronic Dipole per cell (Ry a.u.)  5.606970790552913E-006
     Ionic Dipole per cell (Ry a.u.)   194.510932500270     
 
     Expectation value of exp(iGx): (0.157941231385898,1.122816326120085E-007)
   1.00000000000000     
     Electronic Dipole per cell (Ry a.u.)  3.385820981827103E-006
     Ionic Dipole per cell (Ry a.u.)   194.510932926703     
Electronic Dipole on Cartesian axes
           1  0.722709493644459     
           2  5.606970790552913E-006
           3  3.385820981827103E-006
Ionic Dipole on Cartesian axes
           1   194.623165194023     
           2   194.510932500270     
           3   194.510932926703     

     total cpu time spent up to now is      317.6 secs

     total energy              =    -599.07523491 Ry
     estimated scf accuracy    <       0.00003227 Ry

     iteration #  2     ecut=    25.00 Ry     beta= 0.50
     Davidson diagonalization with overlap
     ethr =  5.04E-08,  avg # of iterations =  1.0
     Davidson diagonalization with overlap
     ethr =  5.04E-08,  avg # of iterations =  1.0
     Davidson diagonalization with overlap
     ethr =  5.04E-08,  avg # of iterations =  1.0
 
     Expectation value of exp(iGx): (0.156073883261904,2.376435137492567E-002)
   1.00000000000000     
     Electronic Dipole per cell (Ry a.u.)  0.719653624834749     
     Ionic Dipole per cell (Ry a.u.)   194.623165194023     
 
     Expectation value of exp(iGx): (0.157939714470068,4.750092150911447E-008)
   1.00000000000000     
     Electronic Dipole per cell (Ry a.u.)  1.432390655797726E-006
     Ionic Dipole per cell (Ry a.u.)   194.510932500270     
 
     Expectation value of exp(iGx): (0.157939715039374,2.780227751947480E-008)
   1.00000000000000     
     Electronic Dipole per cell (Ry a.u.)  8.383778908078481E-007
     Ionic Dipole per cell (Ry a.u.)   194.510932926703     
Electronic Dipole on Cartesian axes
           1  0.719653624834749     
           2  1.432390655797726E-006
           3  8.383778908078481E-007
Ionic Dipole on Cartesian axes
           1   194.623165194023     
           2   194.510932500270     
           3   194.510932926703     

     total cpu time spent up to now is      346.6 secs

     total energy              =    -599.07523165 Ry
     estimated scf accuracy    <       0.00000592 Ry

     iteration #  3     ecut=    25.00 Ry     beta= 0.50
     Davidson diagonalization with overlap
     ethr =  9.24E-09,  avg # of iterations =  2.0
     Davidson diagonalization with overlap
     ethr =  9.24E-09,  avg # of iterations =  1.0
     Davidson diagonalization with overlap
     ethr =  9.24E-09,  avg # of iterations =  1.0
 
     Expectation value of exp(iGx): (0.156082892199517,2.370295234947360E-002)
   1.00000000000000     
     Electronic Dipole per cell (Ry a.u.)  0.717781542183991     
     Ionic Dipole per cell (Ry a.u.)   194.623165194023     
 
     Expectation value of exp(iGx): (0.157939339711244,4.041253009318124E-010)
   1.00000000000000     
     Electronic Dipole per cell (Ry a.u.)  1.218643050581239E-008
     Ionic Dipole per cell (Ry a.u.)   194.510932500270     
 
     Expectation value of exp(iGx): (0.157939339973457,-1.539796771208093E-009)
   1.00000000000000     
     Electronic Dipole per cell (Ry a.u.) -4.643269365218064E-008
     Ionic Dipole per cell (Ry a.u.)   194.510932926703     
Electronic Dipole on Cartesian axes
           1  0.717781542183991     
           2  1.218643050581239E-008
           3 -4.643269365218064E-008
Ionic Dipole on Cartesian axes
           1   194.623165194023     
           2   194.510932500270     
           3   194.510932926703     

     total cpu time spent up to now is      376.0 secs

     total energy              =    -599.07523174 Ry
     estimated scf accuracy    <       0.00000014 Ry

     iteration #  4     ecut=    25.00 Ry     beta= 0.50
     Davidson diagonalization with overlap
     ethr =  2.22E-10,  avg # of iterations =  2.0
     Davidson diagonalization with overlap
     ethr =  2.22E-10,  avg # of iterations =  1.0
     Davidson diagonalization with overlap
     ethr =  2.22E-10,  avg # of iterations =  1.0
 
     Expectation value of exp(iGx): (0.156080488906906,2.371650657207029E-002)
   1.00000000000000     
     Electronic Dipole per cell (Ry a.u.)  0.718196695478189     
     Ionic Dipole per cell (Ry a.u.)   194.623165194023     
 
     Expectation value of exp(iGx): (0.157939245343537,7.216213204460156E-009)
   1.00000000000000     
     Electronic Dipole per cell (Ry a.u.)  2.176056114067831E-007
     Ionic Dipole per cell (Ry a.u.)   194.510932500270     
 
     Expectation value of exp(iGx): (0.157939245658715,5.518201090081581E-009)
   1.00000000000000     
     Electronic Dipole per cell (Ry a.u.)  1.664018905104182E-007
     Ionic Dipole per cell (Ry a.u.)   194.510932926703     
Electronic Dipole on Cartesian axes
           1  0.718196695478189     
           2  2.176056114067831E-007
           3  1.664018905104182E-007
Ionic Dipole on Cartesian axes
           1   194.623165194023     
           2   194.510932500270     
           3   194.510932926703     

     total cpu time spent up to now is      403.5 secs

     End of self-consistent calculation

          k = 0.0000 0.0000 0.0000 (  2517 PWs)   bands (ev):

  -100.2681-100.2681-100.2680 -99.9107 -60.4818 -60.4817 -60.4817 -60.2464
   -60.2422 -60.2421 -60.2419 -60.2419 -60.2376 -60.0025 -59.9982 -59.9937
    -5.6157  -3.4106  -3.4106  -3.4106   0.7452   0.7452   0.7453   4.4400
     4.4444   4.4444   4.4446   4.4446   4.4473   6.5448   6.5548   6.5598

          k = 0.0000 0.0000 0.2500 (  2501 PWs)   bands (ev):

  -100.2008-100.2007-100.1602 -99.8968 -60.3740 -60.2556 -60.2541 -60.2524
   -60.2497 -60.2463 -60.2451 -60.1436 -60.1434 -59.9823 -59.9814 -59.9626
    -5.3946  -3.9156  -3.3861  -3.3861   0.9026   0.9027   1.5345   3.8406
     3.8409   4.0440   4.0442   4.6749   4.6752   5.1321   6.0955   6.0959

          k = 0.0000 0.0000 0.5000 (  2496 PWs)   bands (ev):

  -100.2140-100.2139 -99.9762 -99.9762 -60.3016 -60.3016 -60.3015 -60.3014
   -60.2197 -60.2197 -60.0455 -60.0455 -60.0425 -60.0425 -60.0132 -60.0132
    -4.7699  -4.7699  -3.3625  -3.3625   1.1163   1.1164   3.1755   3.1755
     3.3328   3.3328   3.7684   3.7684   5.2610   5.2610   5.2613   5.2613

          k = 0.0000 0.0000 0.7500 (  2501 PWs)   bands (ev):

  -100.2008-100.2007-100.1602 -99.8968 -60.3740 -60.2556 -60.2541 -60.2524
   -60.2497 -60.2463 -60.2451 -60.1436 -60.1434 -59.9823 -59.9814 -59.9626
    -5.3946  -3.9156  -3.3861  -3.3861   0.9026   0.9027   1.5345   3.8406
     3.8409   4.0440   4.0442   4.6749   4.6752   5.1321   6.0955   6.0959

          k = 0.0000 0.2500 0.0000 (  2501 PWs)   bands (ev):

  -100.2008-100.2007-100.1602 -99.8968 -60.3740 -60.2556 -60.2541 -60.2524
   -60.2497 -60.2463 -60.2451 -60.1436 -60.1434 -59.9823 -59.9814 -59.9626
    -5.3946  -3.9156  -3.3861  -3.3861   0.9026   0.9027   1.5345   3.8406
     3.8409   4.0440   4.0442   4.6749   4.6752   5.1321   6.0955   6.0959

          k = 0.0000 0.2500 0.2500 (  2512 PWs)   bands (ev):

  -100.2551-100.2550-100.1179 -99.9712 -60.4214 -60.4214 -60.2895 -60.2894
   -60.2382 -60.1984 -60.1984 -60.1757 -60.0972 -60.0672 -60.0532 -60.0273
    -5.1814  -3.8248  -3.8248  -3.4400   1.0240   1.4493   1.4493   3.0899
     3.9852   3.9852   4.0199   4.5463   4.5463   4.8466   5.5328   6.4450

          k = 0.0000 0.2500 0.5000 (  2522 PWs)   bands (ev):

  -100.2643-100.2643-100.1070-100.1070 -60.3603 -60.3542 -60.3476 -60.3476
   -60.2257 -60.2196 -60.2065 -60.2065 -60.1872 -60.1785 -60.1389 -60.1301
    -4.5976  -4.5965  -3.6171  -3.6151   1.2370   1.2461   2.6202   2.6313
     3.1268   3.1282   4.6059   4.6071   4.6993   4.7085   5.6385   5.6503

          k = 0.0000 0.2500 0.7500 (  2512 PWs)   bands (ev):

  -100.2551-100.2550-100.1179 -99.9712 -60.4181 -60.4181 -60.2895 -60.2894
   -60.2382 -60.2017 -60.2017 -60.1845 -60.0883 -60.0673 -60.0620 -60.0185
    -5.1820  -3.8235  -3.8235  -3.4416   1.0285   1.4418   1.4419   3.0954
     3.9857   3.9857   4.0321   4.5534   4.5534   4.8383   5.5318   6.4303

          k = 0.0000 0.5000 0.0000 (  2496 PWs)   bands (ev):

  -100.2140-100.2139 -99.9762 -99.9762 -60.3016 -60.3016 -60.3015 -60.3015
   -60.2197 -60.2197 -60.0455 -60.0455 -60.0425 -60.0425 -60.0132 -60.0132
    -4.7699  -4.7699  -3.3625  -3.3625   1.1163   1.1164   3.1755   3.1755
     3.3328   3.3328   3.7684   3.7684   5.2610   5.2610   5.2613   5.2613

          k = 0.0000 0.5000 0.2500 (  2522 PWs)   bands (ev):

  -100.2643-100.2643-100.1070-100.1070 -60.3603 -60.3542 -60.3476 -60.3476
   -60.2257 -60.2196 -60.2065 -60.2065 -60.1872 -60.1785 -60.1389 -60.1301
    -4.5976  -4.5965  -3.6171  -3.6151   1.2370   1.2461   2.6202   2.6313
     3.1268   3.1282   4.6059   4.6071   4.6993   4.7085   5.6385   5.6503

          k = 0.0000 0.5000 0.5000 (  2496 PWs)   bands (ev):

  -100.1040-100.1039-100.1039-100.1038 -60.2731 -60.2731 -60.2731 -60.2730
   -60.1993 -60.1992 -60.1906 -60.1905 -60.0302 -60.0301 -60.0214 -60.0213
    -4.1453  -4.1453  -4.1432  -4.1432   1.7805   1.7805   1.7927   1.7927
     3.6386   3.6386   3.6395   3.6395   5.7443   5.7443   5.7560   5.7560

          k = 0.0000 0.5000 0.7500 (  2522 PWs)   bands (ev):

  -100.2643-100.2643-100.1070-100.1070 -60.3603 -60.3542 -60.3476 -60.3476
   -60.2257 -60.2196 -60.2065 -60.2065 -60.1872 -60.1785 -60.1389 -60.1301
    -4.5976  -4.5965  -3.6171  -3.6151   1.2370   1.2461   2.6202   2.6313
     3.1268   3.1282   4.6059   4.6071   4.6993   4.7085   5.6385   5.6503

          k = 0.0000 0.7500 0.0000 (  2501 PWs)   bands (ev):

  -100.2008-100.2007-100.1602 -99.8968 -60.3740 -60.2556 -60.2541 -60.2524
   -60.2497 -60.2463 -60.2451 -60.1436 -60.1434 -59.9823 -59.9814 -59.9626
    -5.3946  -3.9156  -3.3861  -3.3861   0.9026   0.9027   1.5345   3.8406
     3.8409   4.0440   4.0442   4.6749   4.6752   5.1321   6.0955   6.0959

          k = 0.0000 0.7500 0.2500 (  2512 PWs)   bands (ev):

  -100.2551-100.2550-100.1179 -99.9712 -60.4181 -60.4181 -60.2895 -60.2894
   -60.2382 -60.2017 -60.2017 -60.1845 -60.0883 -60.0673 -60.0620 -60.0185
    -5.1820  -3.8235  -3.8235  -3.4416   1.0285   1.4418   1.4419   3.0954
     3.9857   3.9857   4.0321   4.5534   4.5534   4.8383   5.5318   6.4303

          k = 0.0000 0.7500 0.5000 (  2522 PWs)   bands (ev):

  -100.2643-100.2643-100.1070-100.1070 -60.3603 -60.3542 -60.3476 -60.3476
   -60.2257 -60.2196 -60.2065 -60.2065 -60.1872 -60.1785 -60.1389 -60.1301
    -4.5976  -4.5965  -3.6171  -3.6151   1.2370   1.2461   2.6202   2.6313
     3.1268   3.1282   4.6059   4.6071   4.6993   4.7085   5.6385   5.6503

          k = 0.0000 0.7500 0.7500 (  2512 PWs)   bands (ev):

  -100.2551-100.2550-100.1179 -99.9712 -60.4214 -60.4214 -60.2895 -60.2894
   -60.2382 -60.1984 -60.1984 -60.1757 -60.0972 -60.0672 -60.0532 -60.0273
    -5.1814  -3.8248  -3.8248  -3.4400   1.0240   1.4493   1.4493   3.0899
     3.9852   3.9852   4.0199   4.5463   4.5463   4.8466   5.5328   6.4450

          k = 0.2500 0.0000 0.0000 (  2501 PWs)   bands (ev):

  -100.2008-100.2007-100.1602 -99.8968 -60.3740 -60.2557 -60.2556 -60.2497
   -60.2496 -60.2464 -60.2463 -60.1479 -60.1390 -59.9857 -59.9769 -59.9638
    -5.3946  -3.9156  -3.3861  -3.3861   0.9026   0.9027   1.5346   3.8409
     3.8409   4.0442   4.0442   4.6704   4.6781   5.1324   6.0890   6.1013

          k = 0.2500 0.0000 0.2500 (  2512 PWs)   bands (ev):

  -100.2551-100.2550-100.1179 -99.9712 -60.4198 -60.4198 -60.2895 -60.2892
   -60.2383 -60.2002 -60.1999 -60.1800 -60.0928 -60.0683 -60.0567 -60.0227
    -5.1817  -3.8242  -3.8242  -3.4408   1.0262   1.4456   1.4456   3.0927
     3.9852   3.9855   4.0259   4.5496   4.5498   4.8433   5.5321   6.4383

          k = 0.2500 0.0000 0.5000 (  2522 PWs)   bands (ev):

  -100.2643-100.2643-100.1070-100.1070 -60.3575 -60.3575 -60.3474 -60.3473
   -60.2226 -60.2226 -60.2070 -60.2069 -60.1825 -60.1825 -60.1344 -60.1344
    -4.5970  -4.5970  -3.6161  -3.6161   1.2415   1.2415   2.6257   2.6257
     3.1275   3.1275   4.6066   4.6066   4.7041   4.7041   5.6445   5.6445

          k = 0.2500 0.0000 0.7500 (  2512 PWs)   bands (ev):

  -100.2551-100.2550-100.1179 -99.9712 -60.4198 -60.4198 -60.2895 -60.2892
   -60.2383 -60.2002 -60.1999 -60.1800 -60.0928 -60.0683 -60.0567 -60.0227
    -5.1817  -3.8242  -3.8242  -3.4408   1.0262   1.4456   1.4456   3.0927
     3.9852   3.9855   4.0259   4.5496   4.5498   4.8433   5.5321   6.4383

          k = 0.2500 0.2500 0.0000 (  2512 PWs)   bands (ev):

  -100.2551-100.2550-100.1179 -99.9712 -60.4198 -60.4198 -60.2895 -60.2892
   -60.2383 -60.2002 -60.1999 -60.1800 -60.0928 -60.0683 -60.0567 -60.0227
    -5.1817  -3.8242  -3.8242  -3.4408   1.0262   1.4456   1.4456   3.0927
     3.9852   3.9855   4.0259   4.5496   4.5498   4.8433   5.5321   6.4383

          k = 0.2500 0.2500 0.2500 (  2494 PWs)   bands (ev):

  -100.1202-100.1202-100.1201-100.0019 -60.2573 -60.2573 -60.2558 -60.2123
   -60.1910 -60.1910 -60.1881 -60.0826 -60.0781 -60.0781 -60.0147 -60.0089
    -4.9847  -3.7841  -3.7841  -3.7828   1.2209   1.2270   1.2270   3.0391
     3.7829   3.7829   3.7838   5.0274   5.0275   5.0308   6.1418   6.1501

          k = 0.2500 0.2500 0.5000 (  2516 PWs)   bands (ev):

  -100.2798-100.2798-100.0569-100.0569 -60.4122 -60.4071 -60.3429 -60.3428
   -60.2703 -60.2660 -60.2270 -60.2219 -60.1149 -60.1106 -60.0088 -60.0087
    -4.4521  -4.4509  -3.7496  -3.7477   0.9821   0.9900   1.9049   1.9131
     3.7981   3.7983   5.0670   5.0739   5.2495   5.2584   5.5372   5.5384

          k = 0.2500 0.2500 0.7500 (  2494 PWs)   bands (ev):

  -100.1202-100.1202-100.1201-100.0019 -60.2561 -60.2547 -60.2547 -60.2181
   -60.1965 -60.1936 -60.1935 -60.0782 -60.0781 -60.0737 -60.0118 -60.0058
    -4.9853  -3.7841  -3.7828  -3.7828   1.2194   1.2194   1.2256   3.0461
     3.7893   3.7901   3.7901   5.0220   5.0269   5.0269   6.1371   6.1477

          k = 0.2500 0.5000 0.0000 (  2522 PWs)   bands (ev):

  -100.2643-100.2643-100.1070-100.1070 -60.3575 -60.3575 -60.3474 -60.3473
   -60.2226 -60.2226 -60.2070 -60.2069 -60.1825 -60.1825 -60.1344 -60.1344
    -4.5970  -4.5970  -3.6161  -3.6161   1.2415   1.2415   2.6257   2.6257
     3.1275   3.1275   4.6066   4.6066   4.7041   4.7041   5.6445   5.6445

          k = 0.2500 0.5000 0.2500 (  2516 PWs)   bands (ev):

  -100.2798-100.2798-100.0569-100.0569 -60.4122 -60.4071 -60.3429 -60.3428
   -60.2703 -60.2660 -60.2270 -60.2219 -60.1149 -60.1106 -60.0087 -60.0087
    -4.4521  -4.4509  -3.7496  -3.7477   0.9821   0.9900   1.9049   1.9131
     3.7981   3.7983   5.0670   5.0739   5.2495   5.2584   5.5372   5.5384

          k = 0.2500 0.5000 0.5000 (  2484 PWs)   bands (ev):

  -100.0642-100.0642-100.0642-100.0641 -60.2496 -60.2496 -60.2430 -60.2430
   -60.1120 -60.1119 -60.1098 -60.1098 -60.0353 -60.0352 -60.0265 -60.0264
    -4.0959  -4.0959  -4.0938  -4.0937   1.1278   1.1278   1.1369   1.1369
     4.7258   4.7258   4.7291   4.7291   5.7857   5.7857   5.7975   5.7975

          k = 0.2500 0.5000 0.7500 (  2516 PWs)   bands (ev):

  -100.2798-100.2798-100.0569-100.0569 -60.4122 -60.4071 -60.3429 -60.3428
   -60.2703 -60.2660 -60.2270 -60.2219 -60.1149 -60.1106 -60.0087 -60.0087
    -4.4521  -4.4509  -3.7496  -3.7477   0.9821   0.9900   1.9049   1.9131
     3.7981   3.7983   5.0670   5.0739   5.2495   5.2584   5.5372   5.5384

          k = 0.2500 0.7500 0.0000 (  2512 PWs)   bands (ev):

  -100.2551-100.2550-100.1179 -99.9712 -60.4198 -60.4198 -60.2895 -60.2892
   -60.2383 -60.2002 -60.1999 -60.1800 -60.0928 -60.0683 -60.0567 -60.0227
    -5.1817  -3.8242  -3.8242  -3.4408   1.0262   1.4456   1.4456   3.0927
     3.9852   3.9855   4.0259   4.5496   4.5498   4.8433   5.5321   6.4383

          k = 0.2500 0.7500 0.2500 (  2494 PWs)   bands (ev):

  -100.1202-100.1202-100.1201-100.0019 -60.2561 -60.2547 -60.2547 -60.2181
   -60.1965 -60.1936 -60.1935 -60.0782 -60.0781 -60.0737 -60.0118 -60.0058
    -4.9853  -3.7841  -3.7828  -3.7828   1.2194   1.2194   1.2256   3.0461
     3.7893   3.7901   3.7901   5.0220   5.0269   5.0269   6.1371   6.1477

          k = 0.2500 0.7500 0.5000 (  2516 PWs)   bands (ev):

  -100.2798-100.2798-100.0569-100.0569 -60.4122 -60.4071 -60.3429 -60.3428
   -60.2703 -60.2660 -60.2270 -60.2219 -60.1149 -60.1106 -60.0088 -60.0087
    -4.4521  -4.4509  -3.7496  -3.7477   0.9821   0.9900   1.9049   1.9131
     3.7981   3.7983   5.0670   5.0739   5.2495   5.2584   5.5372   5.5384

          k = 0.2500 0.7500 0.7500 (  2494 PWs)   bands (ev):

  -100.1202-100.1202-100.1201-100.0019 -60.2573 -60.2573 -60.2558 -60.2123
   -60.1910 -60.1910 -60.1881 -60.0826 -60.0781 -60.0781 -60.0147 -60.0089
    -4.9847  -3.7841  -3.7841  -3.7828   1.2209   1.2270   1.2270   3.0391
     3.7829   3.7829   3.7838   5.0274   5.0275   5.0308   6.1418   6.1501

          k = 0.5000 0.0000 0.0000 (  2496 PWs)   bands (ev):

  -100.2140-100.2139 -99.9763 -99.9762 -60.3058 -60.3057 -60.2970 -60.2969
   -60.2201 -60.2200 -60.0483 -60.0482 -60.0390 -60.0389 -60.0140 -60.0139
    -4.7699  -4.7699  -3.3625  -3.3625   1.1163   1.1163   3.1756   3.1756
     3.3328   3.3328   3.7684   3.7684   5.2559   5.2559   5.2652   5.2652

          k = 0.5000 0.0000 0.2500 (  2522 PWs)   bands (ev):

  -100.2644-100.2643-100.1071-100.1070 -60.3587 -60.3586 -60.3461 -60.3460
   -60.2228 -60.2227 -60.2070 -60.2069 -60.1825 -60.1825 -60.1344 -60.1344
    -4.5970  -4.5970  -3.6161  -3.6161   1.2415   1.2415   2.6257   2.6258
     3.1275   3.1275   4.6063   4.6063   4.7041   4.7041   5.6443   5.6443

          k = 0.5000 0.0000 0.5000 (  2496 PWs)   bands (ev):

  -100.1040-100.1040-100.1039-100.1038 -60.2732 -60.2731 -60.2731 -60.2730
   -60.1949 -60.1949 -60.1948 -60.1948 -60.0258 -60.0258 -60.0258 -60.0258
    -4.1443  -4.1443  -4.1443  -4.1443   1.7866   1.7866   1.7866   1.7866
     3.6390   3.6390   3.6390   3.6390   5.7508   5.7508   5.7508   5.7509

          k = 0.5000 0.0000 0.7500 (  2522 PWs)   bands (ev):

  -100.2644-100.2643-100.1071-100.1070 -60.3587 -60.3586 -60.3461 -60.3460
   -60.2228 -60.2227 -60.2070 -60.2069 -60.1825 -60.1825 -60.1344 -60.1344
    -4.5970  -4.5970  -3.6161  -3.6161   1.2415   1.2415   2.6257   2.6258
     3.1275   3.1275   4.6063   4.6063   4.7041   4.7041   5.6443   5.6443

          k = 0.5000 0.2500 0.0000 (  2522 PWs)   bands (ev):

  -100.2644-100.2643-100.1071-100.1070 -60.3587 -60.3586 -60.3461 -60.3460
   -60.2228 -60.2227 -60.2070 -60.2069 -60.1825 -60.1825 -60.1344 -60.1344
    -4.5970  -4.5970  -3.6161  -3.6161   1.2415   1.2415   2.6257   2.6258
     3.1275   3.1275   4.6063   4.6063   4.7041   4.7041   5.6443   5.6443

          k = 0.5000 0.2500 0.2500 (  2516 PWs)   bands (ev):

  -100.2798-100.2797-100.0569-100.0568 -60.4130 -60.4130 -60.3384 -60.3384
   -60.2644 -60.2643 -60.2256 -60.2255 -60.1122 -60.1122 -60.0132 -60.0132
    -4.4511  -4.4511  -3.7494  -3.7494   0.9898   0.9898   1.9064   1.9064
     3.7928   3.7928   5.0733   5.0733   5.2511   5.2511   5.5422   5.5423

          k = 0.5000 0.2500 0.5000 (  2484 PWs)   bands (ev):

  -100.0642-100.0642-100.0642-100.0641 -60.2490 -60.2490 -60.2437 -60.2437
   -60.1136 -60.1136 -60.1083 -60.1082 -60.0308 -60.0308 -60.0308 -60.0308
    -4.0956  -4.0956  -4.0941  -4.0940   1.1287   1.1287   1.1360   1.1361
     4.7239   4.7239   4.7304   4.7304   5.7918   5.7918   5.7931   5.7931

          k = 0.5000 0.2500 0.7500 (  2516 PWs)   bands (ev):

  -100.2798-100.2797-100.0569-100.0568 -60.4062 -60.4062 -60.3472 -60.3471
   -60.2719 -60.2719 -60.2236 -60.2236 -60.1134 -60.1133 -60.0044 -60.0043
    -4.4520  -4.4519  -3.7479  -3.7479   0.9822   0.9822   1.9116   1.9116
     3.8035   3.8035   5.0680   5.0680   5.2574   5.2574   5.5319   5.5319

          k = 0.5000 0.5000 0.0000 (  2496 PWs)   bands (ev):

  -100.1040-100.1040-100.1039-100.1038 -60.2732 -60.2732 -60.2731 -60.2730
   -60.1949 -60.1949 -60.1948 -60.1948 -60.0258 -60.0258 -60.0258 -60.0258
    -4.1443  -4.1443  -4.1443  -4.1443   1.7866   1.7866   1.7866   1.7866
     3.6390   3.6390   3.6390   3.6390   5.7508   5.7508   5.7508   5.7509

          k = 0.5000 0.5000 0.2500 (  2484 PWs)   bands (ev):

  -100.0642-100.0642-100.0642-100.0641 -60.2490 -60.2490 -60.2437 -60.2437
   -60.1136 -60.1136 -60.1083 -60.1082 -60.0308 -60.0308 -60.0308 -60.0308
    -4.0956  -4.0956  -4.0941  -4.0940   1.1287   1.1287   1.1360   1.1361
     4.7239   4.7239   4.7304   4.7304   5.7918   5.7918   5.7931   5.7931

          k = 0.5000 0.5000 0.5000 (  2512 PWs)   bands (ev):

  -100.1643-100.1643-100.1642-100.1642 -60.4916 -60.4916 -60.4858 -60.4858
   -60.1052 -60.1051 -60.1022 -60.1022 -60.0993 -60.0993 -60.0963 -60.0962
    -4.0491  -4.0491  -4.0467  -4.0467   0.6898   0.6898   0.6980   0.6980
     5.8152   5.8153   5.8195   5.8195   5.8262   5.8262   5.8275   5.8275

          k = 0.5000 0.5000 0.7500 (  2484 PWs)   bands (ev):

  -100.0642-100.0642-100.0642-100.0641 -60.2490 -60.2490 -60.2437 -60.2437
   -60.1136 -60.1136 -60.1083 -60.1082 -60.0308 -60.0308 -60.0308 -60.0308
    -4.0956  -4.0956  -4.0941  -4.0940   1.1287   1.1287   1.1360   1.1361
     4.7239   4.7239   4.7304   4.7304   5.7918   5.7918   5.7931   5.7931

          k = 0.5000 0.7500 0.0000 (  2522 PWs)   bands (ev):

  -100.2644-100.2643-100.1071-100.1070 -60.3587 -60.3586 -60.3461 -60.3460
   -60.2228 -60.2227 -60.2070 -60.2069 -60.1825 -60.1825 -60.1344 -60.1344
    -4.5970  -4.5970  -3.6161  -3.6161   1.2415   1.2415   2.6257   2.6258
     3.1275   3.1275   4.6063   4.6063   4.7041   4.7041   5.6443   5.6443

          k = 0.5000 0.7500 0.2500 (  2516 PWs)   bands (ev):

  -100.2798-100.2797-100.0569-100.0568 -60.4062 -60.4062 -60.3472 -60.3471
   -60.2719 -60.2719 -60.2236 -60.2236 -60.1134 -60.1133 -60.0044 -60.0043
    -4.4520  -4.4519  -3.7479  -3.7479   0.9822   0.9822   1.9116   1.9116
     3.8035   3.8035   5.0680   5.0680   5.2574   5.2574   5.5319   5.5319

          k = 0.5000 0.7500 0.5000 (  2484 PWs)   bands (ev):

  -100.0642-100.0642-100.0642-100.0641 -60.2490 -60.2490 -60.2437 -60.2437
   -60.1136 -60.1136 -60.1083 -60.1082 -60.0308 -60.0308 -60.0308 -60.0308
    -4.0956  -4.0956  -4.0941  -4.0940   1.1287   1.1287   1.1360   1.1361
     4.7239   4.7239   4.7304   4.7304   5.7918   5.7918   5.7931   5.7931

          k = 0.5000 0.7500 0.7500 (  2516 PWs)   bands (ev):

  -100.2798-100.2797-100.0569-100.0568 -60.4130 -60.4130 -60.3384 -60.3384
   -60.2644 -60.2643 -60.2256 -60.2255 -60.1122 -60.1122 -60.0132 -60.0132
    -4.4511  -4.4511  -3.7494  -3.7494   0.9898   0.9898   1.9064   1.9064
     3.7928   3.7928   5.0733   5.0733   5.2511   5.2511   5.5422   5.5423

          k = 0.7500 0.0000 0.0000 (  2501 PWs)   bands (ev):

  -100.2008-100.2007-100.1602 -99.8968 -60.3740 -60.2557 -60.2556 -60.2497
   -60.2496 -60.2464 -60.2463 -60.1479 -60.1390 -59.9857 -59.9769 -59.9638
    -5.3946  -3.9156  -3.3861  -3.3861   0.9026   0.9027   1.5346   3.8409
     3.8409   4.0442   4.0442   4.6704   4.6781   5.1324   6.0890   6.1013

          k = 0.7500 0.0000 0.2500 (  2512 PWs)   bands (ev):

  -100.2551-100.2550-100.1179 -99.9712 -60.4198 -60.4198 -60.2895 -60.2892
   -60.2383 -60.2002 -60.1999 -60.1800 -60.0928 -60.0683 -60.0567 -60.0227
    -5.1817  -3.8242  -3.8242  -3.4408   1.0262   1.4456   1.4456   3.0927
     3.9852   3.9855   4.0259   4.5496   4.5498   4.8433   5.5321   6.4383

          k = 0.7500 0.0000 0.5000 (  2522 PWs)   bands (ev):

  -100.2643-100.2643-100.1070-100.1070 -60.3575 -60.3575 -60.3474 -60.3473
   -60.2226 -60.2226 -60.2070 -60.2069 -60.1825 -60.1825 -60.1344 -60.1344
    -4.5970  -4.5970  -3.6161  -3.6161   1.2415   1.2415   2.6257   2.6257
     3.1275   3.1275   4.6066   4.6066   4.7041   4.7041   5.6445   5.6445

          k = 0.7500 0.0000 0.7500 (  2512 PWs)   bands (ev):

  -100.2551-100.2550-100.1179 -99.9712 -60.4198 -60.4198 -60.2895 -60.2892
   -60.2383 -60.2002 -60.1999 -60.1800 -60.0928 -60.0683 -60.0567 -60.0227
    -5.1817  -3.8242  -3.8242  -3.4408   1.0262   1.4456   1.4456   3.0927
     3.9852   3.9855   4.0259   4.5496   4.5498   4.8433   5.5321   6.4383

          k = 0.7500 0.2500 0.0000 (  2512 PWs)   bands (ev):

  -100.2551-100.2550-100.1179 -99.9712 -60.4198 -60.4198 -60.2895 -60.2892
   -60.2383 -60.2002 -60.1999 -60.1800 -60.0928 -60.0683 -60.0567 -60.0227
    -5.1817  -3.8242  -3.8242  -3.4408   1.0262   1.4456   1.4456   3.0927
     3.9852   3.9855   4.0259   4.5496   4.5498   4.8433   5.5321   6.4383

          k = 0.7500 0.2500 0.2500 (  2494 PWs)   bands (ev):

  -100.1202-100.1202-100.1201-100.0019 -60.2573 -60.2573 -60.2558 -60.2123
   -60.1910 -60.1910 -60.1881 -60.0826 -60.0781 -60.0781 -60.0147 -60.0089
    -4.9847  -3.7841  -3.7841  -3.7828   1.2209   1.2270   1.2270   3.0391
     3.7829   3.7829   3.7838   5.0274   5.0275   5.0308   6.1418   6.1501

          k = 0.7500 0.2500 0.5000 (  2516 PWs)   bands (ev):

  -100.2798-100.2798-100.0569-100.0569 -60.4122 -60.4071 -60.3429 -60.3428
   -60.2703 -60.2660 -60.2270 -60.2219 -60.1149 -60.1106 -60.0088 -60.0087
    -4.4521  -4.4509  -3.7496  -3.7477   0.9821   0.9900   1.9049   1.9131
     3.7981   3.7983   5.0670   5.0739   5.2495   5.2584   5.5372   5.5384

          k = 0.7500 0.2500 0.7500 (  2494 PWs)   bands (ev):

  -100.1202-100.1202-100.1201-100.0019 -60.2561 -60.2547 -60.2547 -60.2181
   -60.1965 -60.1936 -60.1935 -60.0782 -60.0781 -60.0737 -60.0118 -60.0058
    -4.9853  -3.7841  -3.7828  -3.7828   1.2194   1.2194   1.2256   3.0461
     3.7893   3.7901   3.7901   5.0220   5.0269   5.0269   6.1371   6.1477

          k = 0.7500 0.5000 0.0000 (  2522 PWs)   bands (ev):

  -100.2643-100.2643-100.1070-100.1070 -60.3575 -60.3575 -60.3474 -60.3473
   -60.2226 -60.2226 -60.2070 -60.2069 -60.1825 -60.1825 -60.1344 -60.1344
    -4.5970  -4.5970  -3.6161  -3.6161   1.2415   1.2415   2.6257   2.6257
     3.1275   3.1275   4.6066   4.6066   4.7041   4.7041   5.6445   5.6445

          k = 0.7500 0.5000 0.2500 (  2516 PWs)   bands (ev):

  -100.2798-100.2798-100.0569-100.0569 -60.4122 -60.4071 -60.3429 -60.3428
   -60.2703 -60.2660 -60.2270 -60.2219 -60.1149 -60.1106 -60.0087 -60.0087
    -4.4521  -4.4509  -3.7496  -3.7477   0.9821   0.9900   1.9049   1.9131
     3.7981   3.7983   5.0670   5.0739   5.2495   5.2584   5.5372   5.5384

          k = 0.7500 0.5000 0.5000 (  2484 PWs)   bands (ev):

  -100.0642-100.0642-100.0642-100.0641 -60.2496 -60.2496 -60.2430 -60.2430
   -60.1120 -60.1119 -60.1098 -60.1098 -60.0353 -60.0352 -60.0265 -60.0264
    -4.0959  -4.0959  -4.0938  -4.0937   1.1278   1.1278   1.1369   1.1369
     4.7258   4.7258   4.7291   4.7291   5.7857   5.7857   5.7975   5.7975

          k = 0.7500 0.5000 0.7500 (  2516 PWs)   bands (ev):

[...]
    -4.7699  -4.7699  -3.3625  -3.3625   1.1162   1.1162   3.1756   3.1756
     3.3329   3.3329   3.7684   3.7684   5.2497   5.2497   5.2713   5.2713

          k = 0.5000 0.0000 0.2500 (  2522 PWs)   bands (ev):

  -100.2645-100.2645-100.1071-100.1071 -60.3590 -60.3590 -60.3459 -60.3459
   -60.2229 -60.2229 -60.2071 -60.2071 -60.1826 -60.1826 -60.1345 -60.1345
    -4.5970  -4.5970  -3.6161  -3.6161   1.2414   1.2414   2.6258   2.6258
     3.1275   3.1275   4.6062   4.6062   4.7042   4.7042   5.6444   5.6444

          k = 0.5000 0.0000 0.5000 (  2496 PWs)   bands (ev):

  -100.1040-100.1040-100.1040-100.1040 -60.2733 -60.2733 -60.2733 -60.2733
   -60.1950 -60.1950 -60.1950 -60.1950 -60.0259 -60.0259 -60.0259 -60.0259
    -4.1443  -4.1443  -4.1443  -4.1443   1.7866   1.7866   1.7866   1.7866
     3.6390   3.6390   3.6390   3.6390   5.7509   5.7509   5.7509   5.7509

          k = 0.5000 0.0000 0.7500 (  2522 PWs)   bands (ev):

  -100.2645-100.2645-100.1071-100.1071 -60.3590 -60.3590 -60.3459 -60.3459
   -60.2229 -60.2229 -60.2071 -60.2071 -60.1826 -60.1826 -60.1345 -60.1345
    -4.5970  -4.5970  -3.6161  -3.6161   1.2414   1.2414   2.6258   2.6258
     3.1275   3.1275   4.6062   4.6062   4.7042   4.7042   5.6444   5.6444

          k = 0.5000 0.2500 0.0000 (  2522 PWs)   bands (ev):

  -100.2645-100.2645-100.1071-100.1071 -60.3590 -60.3590 -60.3459 -60.3459
   -60.2229 -60.2229 -60.2071 -60.2071 -60.1826 -60.1826 -60.1345 -60.1345
    -4.5970  -4.5970  -3.6161  -3.6161   1.2414   1.2414   2.6258   2.6258
     3.1275   3.1275   4.6062   4.6062   4.7042   4.7042   5.6444   5.6444

          k = 0.5000 0.2500 0.2500 (  2516 PWs)   bands (ev):

  -100.2799-100.2799-100.0570-100.0570 -60.4134 -60.4134 -60.3382 -60.3382
   -60.2641 -60.2641 -60.2258 -60.2258 -60.1123 -60.1123 -60.0137 -60.0137
    -4.4504  -4.4504  -3.7505  -3.7505   0.9955   0.9955   1.9025   1.9025
     3.7852   3.7853   5.0769   5.0769   5.2469   5.2469   5.5490   5.5490

          k = 0.5000 0.2500 0.5000 (  2484 PWs)   bands (ev):

  -100.0643-100.0643-100.0643-100.0643 -60.2493 -60.2493 -60.2436 -60.2436
   -60.1139 -60.1139 -60.1082 -60.1082 -60.0310 -60.0310 -60.0309 -60.0309
    -4.0969  -4.0969  -4.0928  -4.0928   1.1232   1.1232   1.1415   1.1415
     4.7194   4.7194   4.7347   4.7347   5.7912   5.7912   5.7939   5.7939

          k = 0.5000 0.2500 0.7500 (  2516 PWs)   bands (ev):

  -100.2799-100.2799-100.0570-100.0570 -60.4061 -60.4061 -60.3476 -60.3476
   -60.2723 -60.2723 -60.2237 -60.2237 -60.1136 -60.1136 -60.0041 -60.0041
    -4.4526  -4.4526  -3.7467  -3.7467   0.9765   0.9765   1.9155   1.9155
     3.8111   3.8111   5.0645   5.0645   5.2616   5.2616   5.5251   5.5251

          k = 0.5000 0.5000 0.0000 (  2496 PWs)   bands (ev):

  -100.1040-100.1040-100.1040-100.1040 -60.2733 -60.2733 -60.2733 -60.2733
   -60.1950 -60.1950 -60.1950 -60.1950 -60.0259 -60.0259 -60.0259 -60.0259
    -4.1443  -4.1443  -4.1443  -4.1443   1.7866   1.7866   1.7866   1.7866
     3.6390   3.6390   3.6390   3.6390   5.7509   5.7509   5.7509   5.7509

          k = 0.5000 0.5000 0.2500 (  2484 PWs)   bands (ev):

  -100.0643-100.0643-100.0643-100.0643 -60.2493 -60.2493 -60.2436 -60.2436
   -60.1139 -60.1139 -60.1082 -60.1082 -60.0310 -60.0310 -60.0309 -60.0309
    -4.0969  -4.0969  -4.0928  -4.0928   1.1232   1.1232   1.1415   1.1415
     4.7194   4.7194   4.7347   4.7347   5.7912   5.7912   5.7939   5.7939

          k = 0.5000 0.5000 0.5000 (  2512 PWs)   bands (ev):

  -100.1644-100.1644-100.1643-100.1643 -60.4920 -60.4920 -60.4857 -60.4857
   -60.1056 -60.1056 -60.1025 -60.1025 -60.0994 -60.0994 -60.0960 -60.0960
    -4.0509  -4.0509  -4.0449  -4.0449   0.6836   0.6836   0.7042   0.7042
     5.8073   5.8073   5.8154   5.8154   5.8304   5.8304   5.8354   5.8354

          k = 0.5000 0.5000 0.7500 (  2484 PWs)   bands (ev):

  -100.0643-100.0643-100.0643-100.0643 -60.2493 -60.2493 -60.2436 -60.2436
   -60.1139 -60.1139 -60.1082 -60.1082 -60.0310 -60.0310 -60.0309 -60.0309
    -4.0969  -4.0969  -4.0928  -4.0928   1.1232   1.1232   1.1415   1.1415
     4.7194   4.7194   4.7347   4.7347   5.7912   5.7912   5.7939   5.7939

          k = 0.5000 0.7500 0.0000 (  2522 PWs)   bands (ev):

  -100.2645-100.2645-100.1071-100.1071 -60.3590 -60.3590 -60.3459 -60.3459
   -60.2229 -60.2229 -60.2071 -60.2071 -60.1826 -60.1826 -60.1345 -60.1345
    -4.5970  -4.5970  -3.6161  -3.6161   1.2414   1.2414   2.6258   2.6258
     3.1275   3.1275   4.6062   4.6062   4.7042   4.7042   5.6444   5.6444

          k = 0.5000 0.7500 0.2500 (  2516 PWs)   bands (ev):

  -100.2799-100.2799-100.0570-100.0570 -60.4061 -60.4061 -60.3476 -60.3476
   -60.2723 -60.2723 -60.2237 -60.2237 -60.1136 -60.1136 -60.0041 -60.0041
    -4.4526  -4.4526  -3.7467  -3.7467   0.9765   0.9765   1.9155   1.9155
     3.8111   3.8111   5.0645   5.0645   5.2616   5.2616   5.5251   5.5251

          k = 0.5000 0.7500 0.5000 (  2484 PWs)   bands (ev):

  -100.0643-100.0643-100.0643-100.0643 -60.2493 -60.2493 -60.2436 -60.2436
   -60.1139 -60.1139 -60.1082 -60.1082 -60.0310 -60.0310 -60.0309 -60.0309
    -4.0969  -4.0969  -4.0928  -4.0928   1.1232   1.1232   1.1415   1.1415
     4.7194   4.7194   4.7347   4.7347   5.7912   5.7912   5.7939   5.7939

          k = 0.5000 0.7500 0.7500 (  2516 PWs)   bands (ev):

  -100.2799-100.2799-100.0570-100.0570 -60.4134 -60.4134 -60.3382 -60.3382
   -60.2641 -60.2641 -60.2258 -60.2258 -60.1123 -60.1123 -60.0137 -60.0137
    -4.4504  -4.4504  -3.7505  -3.7505   0.9955   0.9955   1.9025   1.9025
     3.7852   3.7853   5.0769   5.0769   5.2469   5.2469   5.5490   5.5490

          k = 0.7500 0.0000 0.0000 (  2501 PWs)   bands (ev):

  -100.2009-100.2009-100.1603 -99.8969 -60.3742 -60.2561 -60.2561 -60.2498
   -60.2498 -60.2462 -60.2462 -60.1483 -60.1388 -59.9862 -59.9766 -59.9640
    -5.3946  -3.9157  -3.3861  -3.3861   0.9025   0.9026   1.5346   3.8410
     3.8410   4.0443   4.0443   4.6651   4.6834   5.1325   6.0811   6.1092

          k = 0.7500 0.0000 0.2500 (  2512 PWs)   bands (ev):

  -100.2552-100.2552-100.1181 -99.9713 -60.4200 -60.4200 -60.2897 -60.2893
   -60.2385 -60.2004 -60.2000 -60.1801 -60.0929 -60.0686 -60.0567 -60.0228
    -5.1817  -3.8242  -3.8242  -3.4408   1.0261   1.4455   1.4457   3.0927
     3.9851   3.9855   4.0258   4.5497   4.5499   4.8433   5.5320   6.4384

          k = 0.7500 0.0000 0.5000 (  2522 PWs)   bands (ev):

  -100.2645-100.2645-100.1071-100.1071 -60.3577 -60.3577 -60.3474 -60.3474
   -60.2227 -60.2227 -60.2072 -60.2072 -60.1826 -60.1826 -60.1345 -60.1345
    -4.5970  -4.5970  -3.6161  -3.6161   1.2415   1.2415   2.6257   2.6257
     3.1274   3.1274   4.6065   4.6065   4.7042   4.7042   5.6446   5.6446

          k = 0.7500 0.0000 0.7500 (  2512 PWs)   bands (ev):

  -100.2552-100.2552-100.1181 -99.9713 -60.4200 -60.4200 -60.2897 -60.2893
   -60.2385 -60.2004 -60.2000 -60.1801 -60.0929 -60.0686 -60.0567 -60.0228
    -5.1817  -3.8242  -3.8242  -3.4408   1.0261   1.4455   1.4457   3.0927
     3.9851   3.9855   4.0258   4.5497   4.5499   4.8433   5.5320   6.4384

          k = 0.7500 0.2500 0.0000 (  2512 PWs)   bands (ev):

  -100.2552-100.2552-100.1181 -99.9713 -60.4200 -60.4200 -60.2897 -60.2893
   -60.2385 -60.2004 -60.2000 -60.1801 -60.0929 -60.0686 -60.0567 -60.0228
    -5.1817  -3.8242  -3.8242  -3.4408   1.0261   1.4455   1.4457   3.0927
     3.9851   3.9855   4.0258   4.5497   4.5499   4.8433   5.5320   6.4384

          k = 0.7500 0.2500 0.2500 (  2494 PWs)   bands (ev):

  -100.1203-100.1203-100.1203-100.0020 -60.2575 -60.2575 -60.2559 -60.2122
   -60.1910 -60.1910 -60.1879 -60.0830 -60.0783 -60.0783 -60.0151 -60.0089
    -4.9842  -3.7853  -3.7853  -3.7818   1.2175   1.2327   1.2327   3.0340
     3.7777   3.7777   3.7798   5.0279   5.0279   5.0367   6.1381   6.1583

          k = 0.7500 0.2500 0.5000 (  2516 PWs)   bands (ev):

  -100.2799-100.2799-100.0570-100.0570 -60.4126 -60.4070 -60.3430 -60.3430
   -60.2706 -60.2660 -60.2274 -60.2218 -60.1152 -60.1106 -60.0089 -60.0088
    -4.4531  -4.4499  -3.7512  -3.7461   0.9762   0.9958   1.8988   1.9192
     3.7979   3.7985   5.0623   5.0786   5.2433   5.2642   5.5368   5.5393

          k = 0.7500 0.2500 0.7500 (  2494 PWs)   bands (ev):

  -100.1203-100.1203-100.1203-100.0020 -60.2563 -60.2548 -60.2548 -60.2185
   -60.1970 -60.1938 -60.1938 -60.0783 -60.0783 -60.0735 -60.0120 -60.0056
    -4.9858  -3.7851  -3.7816  -3.7816   1.2137   1.2137   1.2290   3.0512
     3.7933   3.7952   3.7952   5.0161   5.0266   5.0266   6.1289   6.1515

          k = 0.7500 0.5000 0.0000 (  2522 PWs)   bands (ev):

  -100.2645-100.2645-100.1071-100.1071 -60.3577 -60.3577 -60.3474 -60.3474
   -60.2227 -60.2227 -60.2072 -60.2072 -60.1826 -60.1826 -60.1345 -60.1345
    -4.5970  -4.5970  -3.6161  -3.6161   1.2415   1.2415   2.6257   2.6257
     3.1274   3.1274   4.6065   4.6065   4.7042   4.7042   5.6446   5.6446

          k = 0.7500 0.5000 0.2500 (  2516 PWs)   bands (ev):

  -100.2799-100.2799-100.0570-100.0570 -60.4126 -60.4070 -60.3430 -60.3430
   -60.2706 -60.2660 -60.2274 -60.2218 -60.1152 -60.1106 -60.0089 -60.0088
    -4.4531  -4.4499  -3.7512  -3.7461   0.9762   0.9958   1.8988   1.9192
     3.7979   3.7985   5.0623   5.0786   5.2433   5.2642   5.5368   5.5393

          k = 0.7500 0.5000 0.5000 (  2484 PWs)   bands (ev):

  -100.0643-100.0643-100.0643-100.0643 -60.2500 -60.2500 -60.2429 -60.2429
   -60.1122 -60.1122 -60.1099 -60.1099 -60.0357 -60.0357 -60.0262 -60.0262
    -4.0977  -4.0977  -4.0920  -4.0920   1.1210   1.1210   1.1437   1.1437
     4.7237   4.7237   4.7312   4.7312   5.7780   5.7780   5.8052   5.8052

          k = 0.7500 0.5000 0.7500 (  2516 PWs)   bands (ev):

  -100.2799-100.2799-100.0570-100.0570 -60.4126 -60.4070 -60.3430 -60.3430
   -60.2706 -60.2660 -60.2274 -60.2218 -60.1152 -60.1106 -60.0089 -60.0088
    -4.4531  -4.4499  -3.7512  -3.7461   0.9762   0.9958   1.8988   1.9192
     3.7979   3.7985   5.0623   5.0786   5.2433   5.2642   5.5368   5.5393

          k = 0.7500 0.7500 0.0000 (  2512 PWs)   bands (ev):

  -100.2552-100.2552-100.1181 -99.9713 -60.4200 -60.4200 -60.2897 -60.2893
   -60.2385 -60.2004 -60.2000 -60.1801 -60.0929 -60.0686 -60.0567 -60.0228
    -5.1817  -3.8242  -3.8242  -3.4408   1.0261   1.4455   1.4457   3.0927
     3.9851   3.9855   4.0258   4.5497   4.5499   4.8433   5.5320   6.4384

          k = 0.7500 0.7500 0.2500 (  2494 PWs)   bands (ev):

  -100.1203-100.1203-100.1203-100.0020 -60.2563 -60.2548 -60.2548 -60.2185
   -60.1970 -60.1938 -60.1938 -60.0783 -60.0783 -60.0735 -60.0120 -60.0056
    -4.9858  -3.7851  -3.7816  -3.7816   1.2137   1.2137   1.2290   3.0512
     3.7933   3.7952   3.7952   5.0161   5.0266   5.0266   6.1289   6.1515

          k = 0.7500 0.7500 0.5000 (  2516 PWs)   bands (ev):

  -100.2799-100.2799-100.0570-100.0570 -60.4126 -60.4070 -60.3430 -60.3430
   -60.2706 -60.2660 -60.2274 -60.2218 -60.1152 -60.1106 -60.0089 -60.0088
    -4.4531  -4.4499  -3.7512  -3.7461   0.9762   0.9958   1.8988   1.9192
     3.7979   3.7985   5.0623   5.0786   5.2433   5.2642   5.5368   5.5393

          k = 0.7500 0.7500 0.7500 (  2494 PWs)   bands (ev):

  -100.1203-100.1203-100.1203-100.0020 -60.2575 -60.2575 -60.2559 -60.2122
   -60.1910 -60.1910 -60.1879 -60.0830 -60.0783 -60.0783 -60.0151 -60.0089
    -4.9842  -3.7853  -3.7853  -3.7818   1.2175   1.2327   1.2327   3.0340
     3.7777   3.7777   3.7798   5.0279   5.0279   5.0367   6.1381   6.1583

     highest occupied level (ev):     6.5692

!    total energy              =    -599.07526505 Ry
     estimated scf accuracy    <          2.3E-11 Ry

     The total energy is the sum of the following terms:
     one-electron contribution =    -412.42845706 Ry
     hartree contribution      =     173.81975443 Ry
     xc contribution           =     -73.84343804 Ry
     ewald contribution        =    -286.42768688 Ry

     convergence has been achieved in   6 iterations

     Forces acting on atoms (cartesian axes, Ry/au):

     atom    1 type  1   force =     0.00037753   -0.00000011   -0.00000012
     atom    2 type  1   force =     0.00037776    0.00000011   -0.00000011
     atom    3 type  1   force =     0.00037779   -0.00000011    0.00000012
     atom    4 type  1   force =     0.00037753    0.00000011    0.00000011
     atom    5 type  2   force =    -0.00037688    0.00000021   -0.00000032
     atom    6 type  2   force =    -0.00037843   -0.00000022   -0.00000033
     atom    7 type  2   force =    -0.00037843    0.00000020    0.00000032
     atom    8 type  2   force =    -0.00037688   -0.00000021    0.00000032
     The non-local contrib.  to forces
     atom    1 type  1   force =    -0.01821446    0.00000009    0.00000009
     atom    2 type  1   force =    -0.01821453   -0.00000009    0.00000011
     atom    3 type  1   force =    -0.01821467    0.00000009   -0.00000009
     atom    4 type  1   force =    -0.01821440   -0.00000009   -0.00000010
     atom    5 type  2   force =    -0.00936514    0.00000023   -0.00000034
     atom    6 type  2   force =    -0.00936652   -0.00000024   -0.00000035
     atom    7 type  2   force =    -0.00936654    0.00000023    0.00000035
     atom    8 type  2   force =    -0.00936514   -0.00000022    0.00000033
     The ionic contribution  to forces
     atom    1 type  1   force =    -0.02161501   -0.00000267   -0.00000285
     atom    2 type  1   force =    -0.02160915    0.00000267   -0.00000272
     atom    3 type  1   force =    -0.02160898   -0.00000261    0.00000289
     atom    4 type  1   force =    -0.02161496    0.00000267    0.00000271
     atom    5 type  2   force =     0.02161789    0.00000180   -0.00000256
     atom    6 type  2   force =     0.02160597   -0.00000166   -0.00000263
     atom    7 type  2   force =     0.02160632    0.00000159    0.00000256
     atom    8 type  2   force =     0.02161790   -0.00000180    0.00000261
     The local contribution  to forces
     atom    1 type  1   force =     0.02464448    0.00000262    0.00000283
     atom    2 type  1   force =     0.02463906   -0.00000264    0.00000269
     atom    3 type  1   force =     0.02463878    0.00000257   -0.00000287
     atom    4 type  1   force =     0.02464445   -0.00000262   -0.00000268
     atom    5 type  2   force =    -0.01970535   -0.00000188    0.00000267
     atom    6 type  2   force =    -0.01969393    0.00000174    0.00000272
     atom    7 type  2   force =    -0.01969426   -0.00000167   -0.00000265
     atom    8 type  2   force =    -0.01970536    0.00000188   -0.00000272
     The core correction contribution to forces
     atom    1 type  1   force =     0.00000000    0.00000000    0.00000000
     atom    2 type  1   force =     0.00000000    0.00000000    0.00000000
     atom    3 type  1   force =     0.00000000    0.00000000    0.00000000
     atom    4 type  1   force =     0.00000000    0.00000000    0.00000000
     atom    5 type  2   force =     0.00000000    0.00000000    0.00000000
     atom    6 type  2   force =     0.00000000    0.00000000    0.00000000
     atom    7 type  2   force =     0.00000000    0.00000000    0.00000000
     atom    8 type  2   force =     0.00000000    0.00000000    0.00000000
     The Hubbard contrib.    to forces
     atom    1 type  1   force =     0.00000000    0.00000000    0.00000000
     atom    2 type  1   force =     0.00000000    0.00000000    0.00000000
     atom    3 type  1   force =     0.00000000    0.00000000    0.00000000
     atom    4 type  1   force =     0.00000000    0.00000000    0.00000000
     atom    5 type  2   force =     0.00000000    0.00000000    0.00000000
     atom    6 type  2   force =     0.00000000    0.00000000    0.00000000
     atom    7 type  2   force =     0.00000000    0.00000000    0.00000000
     atom    8 type  2   force =     0.00000000    0.00000000    0.00000000
     The SCF correction term to forces
     atom    1 type  1   force =     0.00000055   -0.00000015   -0.00000019
     atom    2 type  1   force =     0.00000040    0.00000016   -0.00000019
     atom    3 type  1   force =     0.00000068   -0.00000016    0.00000019
     atom    4 type  1   force =     0.00000046    0.00000015    0.00000019
     atom    5 type  2   force =    -0.00000097    0.00000007   -0.00000009
     atom    6 type  2   force =    -0.00000063   -0.00000006   -0.00000007
     atom    7 type  2   force =    -0.00000063    0.00000006    0.00000007
     atom    8 type  2   force =    -0.00000097   -0.00000007    0.00000009

     Total force =     0.001068     Total SCF correction =     0.000002
     Energy error            =      3.3E-05 Ry
     Gradient error          =      3.8E-04 Ry/Bohr

     bfgs converged in   3 scf cycles and   2 bfgs steps
     (criteria: energy <  1.0E-04 Ry, force <  1.0E-03 Ry/Bohr)

     End of BFGS Geometry Optimization

     Final energy             =    -599.0752650480 Ry

     File ../tmp/alas.bfgs deleted, as requested
Begin final coordinates

ATOMIC_POSITIONS (alat)
Al           -0.1243436466       -0.1249999739       -0.1249999666
Al            0.3756562860        0.3749999654       -0.1249999718
Al            0.3756562794       -0.1249999681        0.3749999732
Al           -0.1243436533        0.3749999748        0.3749999644
As            0.1243434981        0.1249999447        0.1250000833
As            0.6243438629        0.6250000581        0.1250000807
As            0.6243438761        0.1249999481        0.6249999191
As            0.1243434975        0.6250000509        0.6249999178
End final coordinates



     Writing all to output data dir ../tmp/alas.save/
 
     init_run     :      0.70s CPU      0.81s WALL (       1 calls)
     electrons    :    551.08s CPU    606.37s WALL (       3 calls)
     update_pot   :      0.05s CPU      0.06s WALL (       2 calls)
     forces       :      2.23s CPU      2.42s WALL (       3 calls)

     Called by init_run:
     wfcinit      :      0.66s CPU      0.76s WALL (       1 calls)
     potinit      :      0.01s CPU      0.01s WALL (       1 calls)
     hinit0       :      0.01s CPU      0.02s WALL (       1 calls)

     Called by electrons:
     c_bands      :    456.89s CPU    504.75s WALL (      60 calls)
     sum_band     :      7.47s CPU      8.31s WALL (      20 calls)
     v_of_rho     :      0.16s CPU      0.18s WALL (      21 calls)
     mix_rho      :      0.02s CPU      0.03s WALL (      20 calls)

     Called by c_bands:
     init_us_2    :      3.15s CPU      3.27s WALL (    5376 calls)
     init_us_2:cp :      3.12s CPU      3.25s WALL (    5376 calls)
     cegterg      :    424.03s CPU    471.30s WALL (    3840 calls)

     Called by *egterg:
     cdiaghg      :     14.18s CPU     14.52s WALL (    8501 calls)
     h_psi        :    394.70s CPU    440.32s WALL (    9461 calls)
     g_psi        :      0.56s CPU      0.57s WALL (    5557 calls)

     Called by h_psi:
     h_psi:calbec :      7.40s CPU      8.34s WALL (    9461 calls)
     vloc_psi     :     74.28s CPU     85.50s WALL (    9461 calls)
     add_vuspsi   :      6.44s CPU      6.55s WALL (    9461 calls)

     General routines
     calbec       :      8.46s CPU      9.58s WALL (   10229 calls)
     fft          :      0.05s CPU      0.07s WALL (     217 calls)
     ffts         :      0.00s CPU      0.00s WALL (      20 calls)
     fftw         :     67.03s CPU     77.95s WALL (  582108 calls)
     davcio       :      0.00s CPU      0.01s WALL (     128 calls)
 
     Parallel routines

     Electric-field routines
     h_epsi_set   :     69.17s CPU     74.42s WALL (      60 calls)
     h_epsi_apply :    305.80s CPU    339.11s WALL (    9397 calls)
     c_phase_fiel :     17.38s CPU     18.69s WALL (      54 calls)
 
     PWSCF        :   9m14.37s CPU  10m10.25s WALL

 
   This run was terminated on:  19:42:40  15Apr2026            

=------------------------------------------------------------------------------=
   JOB DONE.
=------------------------------------------------------------------------------=
