
     Program PWSCF v.7.2 starts on 21Apr2026 at 18:44:38 

     This program is part of the open-source Quantum ESPRESSO suite
     for quantum simulation of materials; please cite
         "P. Giannozzi et al., J. Phys.:Condens. Matter 21 395502 (2009);
         "P. Giannozzi et al., J. Phys.:Condens. Matter 29 465901 (2017);
         "P. Giannozzi et al., J. Chem. Phys. 152 154105 (2020);
          URL http://www.quantum-espresso.org", 
     in publications or presentations arising from this work. More details at
     http://www.quantum-espresso.org/quote

     Parallel version (MPI & OpenMP), running on       4 processor cores
     Number of MPI processes:                 4
     Threads/MPI process:                     1

     MPI processes distributed on     1 nodes
     59123 MiB available memory on the printing compute node when the environment starts
 
     Waiting for input...
     Reading input from standard input

     Current dimensions of program PWSCF are:
     Max number of different atomic species (ntypx) = 10
     Max number of k-points (npk) =  40000
     Max angular momentum in pseudopotentials (lmaxx) =  4
     Found identity + ( -0.5000 -0.5000  0.0000) symmetry
     This is a supercell, fractional translations are disabled
 
     R & G space division:  proc/nbgrp/npool/nimage =       4
     Subspace diagonalization in iterative solution of the eigenvalue problem:
     a serial algorithm will be used

 
     Parallelization info
     --------------------
     sticks:   dense  smooth     PW     G-vecs:    dense   smooth      PW
     Min         358     358    105                10120    10120    1599
     Max         359     359    106                10123    10123    1602
     Sum        1433    1433    421                40483    40483    6403
 
     Using Slab Decomposition
 


     bravais-lattice index     =            1
     lattice parameter (alat)  =      10.5800  a.u.
     unit-cell volume          =    1184.2871 (a.u.)^3
     number of atoms/cell      =            8
     number of atomic types    =            2
     number of electrons       =        64.00
     number of Kohn-Sham states=           32
     kinetic-energy cutoff     =      40.0000  Ry
     charge density cutoff     =     160.0000  Ry
     scf convergence threshold =      1.0E-08
     mixing beta               =       0.7000
     number of iterations used =            8  plain     mixing
     Exchange-correlation= PBE
                           (   1   4   3   4   0   0   0)

     celldm(1)=  10.580000  celldm(2)=   0.000000  celldm(3)=   0.000000
     celldm(4)=   0.000000  celldm(5)=   0.000000  celldm(6)=   0.000000

     crystal axes: (cart. coord. in units of alat)
               a(1) = (   1.000000   0.000000   0.000000 )  
               a(2) = (   0.000000   1.000000   0.000000 )  
               a(3) = (   0.000000   0.000000   1.000000 )  

     reciprocal axes: (cart. coord. in units 2 pi/alat)
               b(1) = (  1.000000  0.000000  0.000000 )  
               b(2) = (  0.000000  1.000000  0.000000 )  
               b(3) = (  0.000000  0.000000  1.000000 )  


     PseudoPot. # 1 for Al read from file:
     ../pseudo/Al_ONCV_PBE-1.2.upf
     MD5 check sum: 2d9e7bc02555220d62fad08c3c4858e7
     Pseudo is Norm-conserving, Zval = 11.0
     Generated using ONCVPSP code by D. R. Hamann
     Using radial grid of  602 points,  4 beta functions with: 
                l(1) =   0
                l(2) =   0
                l(3) =   1
                l(4) =   1

     PseudoPot. # 2 for As read from file:
     ../pseudo/As_ONCV_PBE-1.2.upf
     MD5 check sum: a2ff92a4799c87c945fff9e6739df4dd
     Pseudo is Norm-conserving, Zval =  5.0
     Generated using ONCVPSP code by D. R. Hamann
     Using radial grid of  602 points,  6 beta functions with: 
                l(1) =   0
                l(2) =   0
                l(3) =   1
                l(4) =   1
                l(5) =   2
                l(6) =   2

     atomic species   valence    mass     pseudopotential
        Al            11.00    26.98200     Al( 1.00)
        As             5.00    74.92200     As( 1.00)

      6 Sym. Ops. (no inversion) found



   Cartesian axes

     site n.     atom                  positions (alat units)
         1           Al  tau(   1) = (  -0.1250000  -0.1250000  -0.1250000  )
         2           Al  tau(   2) = (   0.3750000   0.3750000  -0.1250000  )
         3           Al  tau(   3) = (   0.3750000  -0.1250000   0.3750000  )
         4           Al  tau(   4) = (  -0.1250000   0.3750000   0.3750000  )
         5           As  tau(   5) = (   0.1250000   0.1250000   0.1250000  )
         6           As  tau(   6) = (   0.6250000   0.6250000   0.1250000  )
         7           As  tau(   7) = (   0.6250000   0.1250000   0.6250000  )
         8           As  tau(   8) = (   0.1250000   0.6250000   0.6250000  )

     number of k points=    13
                       cart. coord. in units 2pi/alat
        k(    1) = (   0.0000000   0.0000000   0.0000000), wk =   0.0312500
        k(    2) = (   0.0000000   0.0000000   0.2500000), wk =   0.1875000
        k(    3) = (   0.0000000   0.0000000  -0.5000000), wk =   0.0937500
        k(    4) = (   0.0000000   0.2500000   0.2500000), wk =   0.1875000
        k(    5) = (   0.0000000   0.2500000  -0.5000000), wk =   0.3750000
        k(    6) = (   0.0000000  -0.5000000  -0.5000000), wk =   0.0937500
        k(    7) = (   0.2500000   0.2500000   0.2500000), wk =   0.0625000
        k(    8) = (   0.2500000   0.2500000  -0.5000000), wk =   0.1875000
        k(    9) = (   0.2500000  -0.5000000  -0.5000000), wk =   0.1875000
        k(   10) = (  -0.5000000  -0.5000000  -0.5000000), wk =   0.0312500
        k(   11) = (  -0.2500000   0.0000000   0.2500000), wk =   0.1875000
        k(   12) = (   0.2500000  -0.2500000   0.2500000), wk =   0.1875000
        k(   13) = (   0.2500000  -0.2500000  -0.5000000), wk =   0.1875000

     Dense  grid:    40483 G-vectors     FFT dimensions: (  45,  45,  45)

     Estimated max dynamical RAM per process >      21.57 MB

     Estimated total dynamical RAM >      86.29 MB

     Initial potential from superposition of free atoms

     starting charge      63.5461, renormalised to      64.0000
     Starting wfcs are random

     total cpu time spent up to now is        0.4 secs

     Self-consistent Calculation

     iteration #  1     ecut=    40.00 Ry     beta= 0.70
     Davidson diagonalization with overlap
     ethr =  1.00E-02,  avg # of iterations =  8.5

     Threshold (ethr) on eigenvalues was too large:
     Diagonalizing with lowered threshold

     Davidson diagonalization with overlap
     ethr =  5.85E-04,  avg # of iterations =  2.2

     total cpu time spent up to now is        2.1 secs

     total energy              =    -604.33611088 Ry
     estimated scf accuracy    <       0.35469156 Ry

     iteration #  2     ecut=    40.00 Ry     beta= 0.70
     Davidson diagonalization with overlap
     ethr =  5.54E-04,  avg # of iterations =  2.2

     total cpu time spent up to now is        2.6 secs

     total energy              =    -604.41594851 Ry
     estimated scf accuracy    <       0.04014672 Ry

     iteration #  3     ecut=    40.00 Ry     beta= 0.70
     Davidson diagonalization with overlap
     ethr =  6.27E-05,  avg # of iterations =  2.2

     total cpu time spent up to now is        3.1 secs

     total energy              =    -604.42052280 Ry
     estimated scf accuracy    <       0.00193221 Ry

     iteration #  4     ecut=    40.00 Ry     beta= 0.70
     Davidson diagonalization with overlap
     ethr =  3.02E-06,  avg # of iterations =  3.6

     total cpu time spent up to now is        3.6 secs

     total energy              =    -604.42080404 Ry
     estimated scf accuracy    <       0.00038087 Ry

     iteration #  5     ecut=    40.00 Ry     beta= 0.70
     Davidson diagonalization with overlap
     ethr =  5.95E-07,  avg # of iterations =  2.2

     total cpu time spent up to now is        4.1 secs

     total energy              =    -604.42088129 Ry
     estimated scf accuracy    <       0.00000723 Ry

     iteration #  6     ecut=    40.00 Ry     beta= 0.70
     Davidson diagonalization with overlap
     ethr =  1.13E-08,  avg # of iterations =  4.1

     total cpu time spent up to now is        4.7 secs

     total energy              =    -604.42088145 Ry
     estimated scf accuracy    <       0.00000885 Ry

     iteration #  7     ecut=    40.00 Ry     beta= 0.70
     Davidson diagonalization with overlap
     ethr =  1.13E-08,  avg # of iterations =  2.0

     total cpu time spent up to now is        5.2 secs

     total energy              =    -604.42088297 Ry
     estimated scf accuracy    <       0.00000006 Ry

     iteration #  8     ecut=    40.00 Ry     beta= 0.70
     Davidson diagonalization with overlap
     ethr =  9.85E-11,  avg # of iterations =  4.2

     total cpu time spent up to now is        5.9 secs

     total energy              =    -604.42088303 Ry
     estimated scf accuracy    <       0.00000001 Ry

     iteration #  9     ecut=    40.00 Ry     beta= 0.70
     Davidson diagonalization with overlap
     ethr =  2.21E-11,  avg # of iterations =  2.0

     total cpu time spent up to now is        6.4 secs

     End of self-consistent calculation

          k = 0.0000 0.0000 0.0000 (  5041 PWs)   bands (ev):

   -96.5247 -96.5244 -96.5244 -96.5021 -58.1336 -58.1336 -58.1336 -58.1333
   -58.1333 -58.1333 -58.1313 -58.1313 -58.1313 -58.1305 -58.1305 -58.1305
    -5.7205  -3.6359  -3.6358  -3.6358   0.7763   0.7763   0.7764   4.0793
     4.0793   4.0793   4.0793   4.0794   4.0794   6.3316   6.3316   6.3316

          k = 0.0000 0.0000 0.2500 (  5069 PWs)   bands (ev):

   -96.5389 -96.5257 -96.5204 -96.5202 -58.1347 -58.1335 -58.1335 -58.1329
   -58.1328 -58.1328 -58.1327 -58.1327 -58.1326 -58.1317 -58.1316 -58.1316
    -5.5079  -4.0991  -3.6182  -3.6182   0.9346   0.9346   1.5037   3.5335
     3.5335   3.6906   3.6906   4.3025   4.3025   4.9650   5.8102   5.8102

          k = 0.0000 0.0000-0.5000 (  5078 PWs)   bands (ev):

   -96.5440 -96.5438 -96.5143 -96.5142 -58.1346 -58.1346 -58.1344 -58.1344
   -58.1335 -58.1332 -58.1325 -58.1325 -58.1323 -58.1323 -58.1313 -58.1311
    -4.9075  -4.9075  -3.6002  -3.6002   1.1443   1.1443   3.0237   3.0237
     3.0914   3.0914   3.3901   3.3901   4.9352   4.9352   4.9352   4.9353

          k = 0.0000 0.2500 0.2500 (  5047 PWs)   bands (ev):

   -96.5343 -96.5185 -96.5145 -96.5143 -58.1335 -58.1329 -58.1328 -58.1326
   -58.1326 -58.1325 -58.1324 -58.1323 -58.1322 -58.1321 -58.1307 -58.1307
    -5.3050  -4.0126  -4.0126  -3.6675   1.0488   1.4256   1.4257   2.7793
     3.6796   3.6796   3.8583   4.2120   4.2120   4.4648   5.2305   6.1638

          k = 0.0000 0.2500-0.5000 (  5066 PWs)   bands (ev):

   -96.5346 -96.5344 -96.5160 -96.5158 -58.1339 -58.1337 -58.1335 -58.1333
   -58.1329 -58.1327 -58.1324 -58.1324 -58.1322 -58.1321 -58.1315 -58.1314
    -4.7427  -4.7427  -3.8216  -3.8215   1.2439   1.2440   2.5100   2.5100
     2.8501   2.8501   4.3016   4.3016   4.3712   4.3712   5.3208   5.3208

          k = 0.0000-0.5000-0.5000 (  5056 PWs)   bands (ev):

   -96.5220 -96.5216 -96.5216 -96.5216 -58.1332 -58.1329 -58.1328 -58.1328
   -58.1326 -58.1326 -58.1324 -58.1324 -58.1314 -58.1314 -58.1314 -58.1313
    -4.3106  -4.3105  -4.3105  -4.3105   1.6953   1.6954   1.6954   1.6954
     3.3528   3.3529   3.3529   3.3529   5.4024   5.4024   5.4024   5.4024

          k = 0.2500 0.2500 0.2500 (  5070 PWs)   bands (ev):

   -96.5367 -96.5228 -96.5225 -96.5225 -58.1335 -58.1335 -58.1333 -58.1332
   -58.1332 -58.1332 -58.1330 -58.1330 -58.1330 -58.1314 -58.1314 -58.1313
    -5.1164  -3.9783  -3.9783  -3.9783   1.1720   1.1720   1.1721   2.8796
     3.5051   3.5052   3.5052   4.6573   4.6573   4.6573   5.8354   5.8354

          k = 0.2500 0.2500-0.5000 (  5088 PWs)   bands (ev):

   -96.5395 -96.5393 -96.5226 -96.5224 -58.1343 -58.1343 -58.1338 -58.1337
   -58.1337 -58.1336 -58.1333 -58.1332 -58.1326 -58.1325 -58.1314 -58.1314
    -4.6047  -4.6047  -3.9423  -3.9423   0.9390   0.9390   1.7799   1.7799
     3.5533   3.5533   4.7295   4.7295   4.9728   4.9729   5.1836   5.1836

          k = 0.2500-0.5000-0.5000 (  5048 PWs)   bands (ev):

   -96.5200 -96.5196 -96.5196 -96.5196 -58.1330 -58.1330 -58.1328 -58.1328
   -58.1328 -58.1326 -58.1325 -58.1325 -58.1310 -58.1310 -58.1309 -58.1309
    -4.2665  -4.2665  -4.2665  -4.2665   1.0249   1.0249   1.0249   1.0249
     4.4353   4.4353   4.4353   4.4354   5.4405   5.4405   5.4405   5.4406

          k =-0.5000-0.5000-0.5000 (  5040 PWs)   bands (ev):

   -96.5175 -96.5171 -96.5171 -96.5171 -58.1330 -58.1330 -58.1330 -58.1328
   -58.1328 -58.1327 -58.1327 -58.1327 -58.1301 -58.1301 -58.1301 -58.1301
    -4.2202  -4.2201  -4.2201  -4.2201   0.6059   0.6059   0.6059   0.6060
     5.4809   5.4809   5.4809   5.4810   5.4810   5.4810   5.4810   5.4810

          k =-0.2500 0.0000 0.2500 (  5047 PWs)   bands (ev):

   -96.5343 -96.5185 -96.5145 -96.5143 -58.1335 -58.1329 -58.1328 -58.1326
   -58.1326 -58.1325 -58.1324 -58.1323 -58.1322 -58.1321 -58.1307 -58.1307
    -5.3050  -4.0126  -4.0126  -3.6675   1.0488   1.4256   1.4256   2.7793
     3.6795   3.6796   3.8583   4.2119   4.2120   4.4648   5.2305   6.1638

          k = 0.2500-0.2500 0.2500 (  5070 PWs)   bands (ev):

   -96.5367 -96.5228 -96.5225 -96.5225 -58.1335 -58.1335 -58.1333 -58.1333
   -58.1332 -58.1332 -58.1330 -58.1330 -58.1329 -58.1314 -58.1314 -58.1313
    -5.1164  -3.9783  -3.9783  -3.9782   1.1720   1.1720   1.1720   2.8796
     3.5051   3.5052   3.5052   4.6573   4.6573   4.6574   5.8354   5.8354

          k = 0.2500-0.2500-0.5000 (  5088 PWs)   bands (ev):

   -96.5395 -96.5393 -96.5226 -96.5224 -58.1343 -58.1343 -58.1338 -58.1337
   -58.1337 -58.1336 -58.1333 -58.1332 -58.1326 -58.1325 -58.1314 -58.1314
    -4.6047  -4.6047  -3.9423  -3.9423   0.9390   0.9390   1.7799   1.7799
     3.5533   3.5533   4.7295   4.7295   4.9728   4.9729   5.1836   5.1836

     highest occupied level (ev):     6.3316

!    total energy              =    -604.42088303 Ry
     estimated scf accuracy    <          5.0E-09 Ry

     The total energy is the sum of the following terms:
     one-electron contribution =    -427.61126858 Ry
     hartree contribution      =     185.09638928 Ry
     xc contribution           =     -75.47771657 Ry
     ewald contribution        =    -286.42828716 Ry

     convergence has been achieved in   9 iterations

     Writing all to output data dir ./tmp/alas.save/
 
     init_run     :      0.30s CPU      0.35s WALL (       1 calls)
     electrons    :      5.86s CPU      5.97s WALL (       1 calls)

     Called by init_run:
     wfcinit      :      0.17s CPU      0.20s WALL (       1 calls)
     potinit      :      0.01s CPU      0.01s WALL (       1 calls)
     hinit0       :      0.02s CPU      0.03s WALL (       1 calls)

     Called by electrons:
     c_bands      :      5.18s CPU      5.27s WALL (      10 calls)
     sum_band     :      0.62s CPU      0.63s WALL (      10 calls)
     v_of_rho     :      0.06s CPU      0.06s WALL (      10 calls)
     mix_rho      :      0.01s CPU      0.01s WALL (      10 calls)

     Called by c_bands:
     init_us_2    :      0.09s CPU      0.09s WALL (     273 calls)
     init_us_2:cp :      0.09s CPU      0.09s WALL (     273 calls)
     cegterg      :      4.54s CPU      4.62s WALL (     130 calls)

     Called by *egterg:
     cdiaghg      :      0.42s CPU      0.42s WALL (     548 calls)
     h_psi        :      3.68s CPU      3.78s WALL (     574 calls)
     g_psi        :      0.03s CPU      0.03s WALL (     431 calls)

     Called by h_psi:
     h_psi:calbec :      0.21s CPU      0.22s WALL (     574 calls)
     vloc_psi     :      3.25s CPU      3.33s WALL (     574 calls)
     add_vuspsi   :      0.20s CPU      0.21s WALL (     574 calls)

     General routines
     calbec       :      0.21s CPU      0.22s WALL (     574 calls)
     fft          :      0.02s CPU      0.03s WALL (     100 calls)
     ffts         :      0.00s CPU      0.00s WALL (      10 calls)
     fftw         :      3.34s CPU      3.42s WALL (   30370 calls)
 
     Parallel routines
 
     PWSCF        :      6.21s CPU      6.39s WALL

 
   This run was terminated on:  18:44:44  21Apr2026            

=------------------------------------------------------------------------------=
   JOB DONE.
=------------------------------------------------------------------------------=
